73152295
  -OEChem-09052413452D

 74 77  0     0  0  0  0  0  0999 V2000
    7.2731   -1.6274    0.0000 Fe  0  0  0  0  0  0  0  0  0  0  0  0
   13.2456   -0.6198    0.0000 O   0  0  0  0  0  0  0  0  0  0  0  0
    7.5482    4.8292    0.0000 O   0  0  0  0  0  0  0  0  0  0  0  0
   12.1966    0.7584    0.0000 O   0  0  0  0  0  0  0  0  0  0  0  0
    8.9646    3.8323    0.0000 O   0  0  0  0  0  0  0  0  0  0  0  0
    8.2725   -1.5926    0.0000 N   0  5  0  0  0  0  0  0  0  0  0  0
    6.7372   -0.2231    0.0000 N   0  0  0  0  0  0  0  0  0  0  0  0
    6.7707   -2.9621    0.0000 N   0  5  0  0  0  0  0  0  0  0  0  0
    5.2673   -1.5926    0.0000 N   0  0  0  0  0  0  0  0  0  0  0  0
    9.8094   -1.0586    0.0000 C   0  0  0  0  0  0  0  0  0  0  0  0
    7.2378    1.3791    0.0000 C   0  0  0  0  0  0  0  0  0  0  0  0
    8.8400   -0.7907    0.0000 C   0  0  0  0  0  0  0  0  0  0  0  0
    9.8094   -2.0597    0.0000 C   0  0  0  0  0  0  0  0  0  0  0  0
    7.5727    0.4449    0.0000 C   0  0  0  0  0  0  0  0  0  0  0  0
    6.2367    1.3791    0.0000 C   0  0  0  0  0  0  0  0  0  0  0  0
   10.6051   -0.4529    0.0000 C   0  0  0  0  0  0  0  0  0  0  0  0
    8.8735   -2.3276    0.0000 C   0  0  0  0  0  0  0  0  0  0  0  0
    7.8134    2.1968    0.0000 C   0  0  0  0  0  0  0  0  0  0  0  0
    5.9353    0.4114    0.0000 C   0  0  0  0  0  0  0  0  0  0  0  0
    8.5404    0.1435    0.0000 C   0  0  0  0  0  0  0  0  0  0  0  0
    7.5727   -3.5632    0.0000 C   0  0  0  0  0  0  0  0  0  0  0  0
    8.5738   -3.2953    0.0000 C   0  0  0  0  0  0  0  0  0  0  0  0
    7.2713   -4.5309    0.0000 C   0  0  0  0  0  0  0  0  0  0  0  0
    4.9676    0.1435    0.0000 C   0  0  0  0  0  0  0  0  0  0  0  0
    6.2701   -4.5309    0.0000 C   0  0  0  0  0  0  0  0  0  0  0  0
   11.5275   -0.8392    0.0000 C   0  0  0  0  0  0  0  0  0  0  0  0
    4.6997   -0.8242    0.0000 C   0  0  0  0  0  0  0  0  0  0  0  0
    7.3930    3.1042    0.0000 C   0  0  0  0  0  0  0  0  0  0  0  0
    5.9688   -3.5967    0.0000 C   0  0  0  0  0  0  0  0  0  0  0  0
   10.6079   -2.6617    0.0000 C   0  0  0  0  0  0  0  0  0  0  0  0
    5.6439    2.1845    0.0000 C   0  0  0  0  0  0  0  0  0  0  0  0
    3.7320   -1.0920    0.0000 C   0  0  0  0  0  0  0  0  0  0  0  0
    4.6997   -2.3611    0.0000 C   0  0  0  0  0  0  0  0  0  0  0  0
    3.7320   -2.0932    0.0000 C   0  0  0  0  0  0  0  0  0  0  0  0
    5.0011   -3.2953    0.0000 C   0  0  0  0  0  0  0  0  0  0  0  0
    7.8641   -5.3362    0.0000 C   0  0  0  0  0  0  0  0  0  0  0  0
    5.5994   -5.2726    0.0000 C   0  0  0  0  0  0  0  0  0  0  0  0
    2.9362   -0.4866    0.0000 C   0  0  0  0  0  0  0  0  0  0  0  0
   12.3232   -0.2335    0.0000 C   0  0  0  0  0  0  0  0  0  0  0  0
    7.9686    3.9219    0.0000 C   0  0  0  0  0  0  0  0  0  0  0  0
    2.8660   -2.5932    0.0000 C   0  0  0  0  0  0  0  0  0  0  0  0
    2.0000   -2.0932    0.0000 C   0  0  0  0  0  0  0  0  0  0  0  0
   10.9403    0.0687    0.0000 H   0  0  0  0  0  0  0  0  0  0  0  0
   10.1496   -0.0323    0.0000 H   0  0  0  0  0  0  0  0  0  0  0  0
    8.2507    1.7573    0.0000 H   0  0  0  0  0  0  0  0  0  0  0  0
    8.3222    2.5512    0.0000 H   0  0  0  0  0  0  0  0  0  0  0  0
    8.9769    0.5838    0.0000 H   0  0  0  0  0  0  0  0  0  0  0  0
    9.0036   -3.7421    0.0000 H   0  0  0  0  0  0  0  0  0  0  0  0
    4.5292    0.5819    0.0000 H   0  0  0  0  0  0  0  0  0  0  0  0
   11.1923   -1.3608    0.0000 H   0  0  0  0  0  0  0  0  0  0  0  0
   11.9830   -1.2598    0.0000 H   0  0  0  0  0  0  0  0  0  0  0  0
    6.9557    3.5436    0.0000 H   0  0  0  0  0  0  0  0  0  0  0  0
    6.8843    2.7498    0.0000 H   0  0  0  0  0  0  0  0  0  0  0  0
   10.2347   -3.1568    0.0000 H   0  0  0  0  0  0  0  0  0  0  0  0
   11.1030   -3.0350    0.0000 H   0  0  0  0  0  0  0  0  0  0  0  0
   10.9811   -2.1667    0.0000 H   0  0  0  0  0  0  0  0  0  0  0  0
    6.1432    2.5520    0.0000 H   0  0  0  0  0  0  0  0  0  0  0  0
    5.2764    2.6838    0.0000 H   0  0  0  0  0  0  0  0  0  0  0  0
    5.1446    1.8170    0.0000 H   0  0  0  0  0  0  0  0  0  0  0  0
    4.5649   -3.7359    0.0000 H   0  0  0  0  0  0  0  0  0  0  0  0
    7.3647   -5.7038    0.0000 H   0  0  0  0  0  0  0  0  0  0  0  0
    8.2316   -5.8356    0.0000 H   0  0  0  0  0  0  0  0  0  0  0  0
    8.3634   -4.9687    0.0000 H   0  0  0  0  0  0  0  0  0  0  0  0
    5.1396   -4.8567    0.0000 H   0  0  0  0  0  0  0  0  0  0  0  0
    5.1836   -5.7324    0.0000 H   0  0  0  0  0  0  0  0  0  0  0  0
    6.0593   -5.6884    0.0000 H   0  0  0  0  0  0  0  0  0  0  0  0
    3.3116    0.0069    0.0000 H   0  0  0  0  0  0  0  0  0  0  0  0
    2.4428   -0.1112    0.0000 H   0  0  0  0  0  0  0  0  0  0  0  0
    2.5608   -0.9800    0.0000 H   0  0  0  0  0  0  0  0  0  0  0  0
    2.8660   -3.2132    0.0000 H   0  0  0  0  0  0  0  0  0  0  0  0
    2.0000   -1.4732    0.0000 H   0  0  0  0  0  0  0  0  0  0  0  0
    1.4631   -2.4033    0.0000 H   0  0  0  0  0  0  0  0  0  0  0  0
   13.7389   -0.2443    0.0000 H   0  0  0  0  0  0  0  0  0  0  0  0
    7.9051    5.3362    0.0000 H   0  0  0  0  0  0  0  0  0  0  0  0
  2 39  1  0  0  0  0
  2 73  1  0  0  0  0
  3 40  1  0  0  0  0
  3 74  1  0  0  0  0
  4 39  2  0  0  0  0
  5 40  2  0  0  0  0
  6 12  1  0  0  0  0
  6 17  1  0  0  0  0
  7 14  1  0  0  0  0
  7 19  2  0  0  0  0
  8 21  1  0  0  0  0
  8 29  1  0  0  0  0
  9 27  1  0  0  0  0
  9 33  2  0  0  0  0
 10 12  2  0  0  0  0
 10 13  1  0  0  0  0
 10 16  1  0  0  0  0
 11 14  1  0  0  0  0
 11 15  2  0  0  0  0
 11 18  1  0  0  0  0
 12 20  1  0  0  0  0
 13 17  2  0  0  0  0
 13 30  1  0  0  0  0
 14 20  2  0  0  0  0
 15 19  1  0  0  0  0
 15 31  1  0  0  0  0
 16 26  1  0  0  0  0
 16 43  1  0  0  0  0
 16 44  1  0  0  0  0
 17 22  1  0  0  0  0
 18 28  1  0  0  0  0
 18 45  1  0  0  0  0
 18 46  1  0  0  0  0
 19 24  1  0  0  0  0
 20 47  1  0  0  0  0
 21 22  2  0  0  0  0
 21 23  1  0  0  0  0
 22 48  1  0  0  0  0
 23 25  2  0  0  0  0
 23 36  1  0  0  0  0
 24 27  2  0  0  0  0
 24 49  1  0  0  0  0
 25 29  1  0  0  0  0
 25 37  1  0  0  0  0
 26 39  1  0  0  0  0
 26 50  1  0  0  0  0
 26 51  1  0  0  0  0
 27 32  1  0  0  0  0
 28 40  1  0  0  0  0
 28 52  1  0  0  0  0
 28 53  1  0  0  0  0
 29 35  2  0  0  0  0
 30 54  1  0  0  0  0
 30 55  1  0  0  0  0
 30 56  1  0  0  0  0
 31 57  1  0  0  0  0
 31 58  1  0  0  0  0
 31 59  1  0  0  0  0
 32 34  2  0  0  0  0
 32 38  1  0  0  0  0
 33 34  1  0  0  0  0
 33 35  1  0  0  0  0
 34 41  1  0  0  0  0
 35 60  1  0  0  0  0
 36 61  1  0  0  0  0
 36 62  1  0  0  0  0
 36 63  1  0  0  0  0
 37 64  1  0  0  0  0
 37 65  1  0  0  0  0
 37 66  1  0  0  0  0
 38 67  1  0  0  0  0
 38 68  1  0  0  0  0
 38 69  1  0  0  0  0
 41 42  2  0  0  0  0
 41 70  1  0  0  0  0
 42 71  1  0  0  0  0
 42 72  1  0  0  0  0
M  CHG  3   1   5   6  -1   8  -1
M  END
> <PUBCHEM_COMPOUND_CID>
73152295

> <PUBCHEM_COMPOUND_CANONICALIZED>
1

> <PUBCHEM_CACTVS_COMPLEXITY>
962

> <PUBCHEM_CACTVS_HBOND_ACCEPTOR>
8

> <PUBCHEM_CACTVS_HBOND_DONOR>
2

> <PUBCHEM_CACTVS_ROTATABLE_BOND>
7

> <PUBCHEM_CACTVS_SUBSKEYS>
AAADcfB/uAAAAAAgAAAAAAAAAAAAAWLFiwAAAAAAAAAAAAAB/gAAHgAACAAADAiBngAyyLIIEgCoAyTyTACCgCAhAiAImCEwZJgIIHLA0NGEZAhkgADIyAeY2fOegAAAAAAAAAAAAAAAAAAAAAAAAAAAAA==

> <PUBCHEM_IUPAC_OPENEYE_NAME>
3-[18-(2-carboxyethyl)-3,7,8,13,17-pentamethyl-12-vinyl-porphyrin-21,22-diid-2-yl]propanoic acid;iron(5+)

> <PUBCHEM_IUPAC_CAS_NAME>
3-[18-(2-carboxyethyl)-12-ethenyl-3,7,8,13,17-pentamethyl-2-porphyrin-21,22-diidyl]propanoic acid;iron(5+)

> <PUBCHEM_IUPAC_NAME_MARKUP>
3-[18-(2-carboxyethyl)-12-ethenyl-3,7,8,13,17-pentamethylporphyrin-21,22-diid-2-yl]propanoic acid;iron(5+)

> <PUBCHEM_IUPAC_NAME>
3-[18-(2-carboxyethyl)-12-ethenyl-3,7,8,13,17-pentamethylporphyrin-21,22-diid-2-yl]propanoic acid;iron(5+)

> <PUBCHEM_IUPAC_SYSTEMATIC_NAME>
3-[12-ethenyl-18-(3-hydroxy-3-oxopropyl)-3,7,8,13,17-pentamethyl-porphyrin-21,22-diid-2-yl]propanoic acid;iron(5+)

> <PUBCHEM_IUPAC_TRADITIONAL_NAME>
3-[18-(2-carboxyethyl)-3,7,8,13,17-pentamethyl-12-vinyl-porphine-21,22-diid-2-yl]propionic acid;iron(5+)

> <PUBCHEM_IUPAC_INCHI>
InChI=1S/C33H34N4O4.Fe/c1-7-21-18(4)26-13-28-20(6)23(9-11-33(40)41)31(37-28)15-30-22(8-10-32(38)39)19(5)27(36-30)12-24-16(2)17(3)25(34-24)14-29(21)35-26;/h7,12-15H,1,8-11H2,2-6H3,(H4,34,35,36,37,38,39,40,41);/q;+5/p-2

> <PUBCHEM_IUPAC_INCHIKEY>
DIJBTMZFNNUACZ-UHFFFAOYSA-L

> <PUBCHEM_EXACT_MASS>
604.177291

> <PUBCHEM_MOLECULAR_FORMULA>
C33H32FeN4O4+3

> <PUBCHEM_MOLECULAR_WEIGHT>
604.5

> <PUBCHEM_OPENEYE_CAN_SMILES>
CC1=C(C2=CC3=NC(=CC4=NC(=CC5=C(C(=C([N-]5)C=C1[N-]2)C)CCC(=O)O)C(=C4C)CCC(=O)O)C(=C3C=C)C)C.[Fe+5]

> <PUBCHEM_OPENEYE_ISO_SMILES>
CC1=C(C2=CC3=NC(=CC4=NC(=CC5=C(C(=C([N-]5)C=C1[N-]2)C)CCC(=O)O)C(=C4C)CCC(=O)O)C(=C3C=C)C)C.[Fe+5]

> <PUBCHEM_CACTVS_TPSA>
102

> <PUBCHEM_MONOISOTOPIC_WEIGHT>
604.177291

> <PUBCHEM_TOTAL_CHARGE>
3

> <PUBCHEM_HEAVY_ATOM_COUNT>
42

> <PUBCHEM_ATOM_DEF_STEREO_COUNT>
0

> <PUBCHEM_ATOM_UDEF_STEREO_COUNT>
0

> <PUBCHEM_BOND_DEF_STEREO_COUNT>
0

> <PUBCHEM_BOND_UDEF_STEREO_COUNT>
0

> <PUBCHEM_ISOTOPIC_ATOM_COUNT>
0

> <PUBCHEM_COMPONENT_COUNT>
2

> <PUBCHEM_CACTVS_TAUTO_COUNT>
-1

> <PUBCHEM_COORDINATE_TYPE>
1
5
255

> <PUBCHEM_BONDANNOTATIONS>
10  12  8
10  13  8
12  20  8
13  17  8
14  20  8
17  22  8
19  24  8
21  22  8
21  23  8
23  25  8
24  27  8
25  29  8
29  35  8
33  35  8
6  12  8
6  17  8
7  14  8
7  19  8
8  21  8
8  29  8
9  27  8
9  33  8

$$$$
