
                                 *****************
                                 * O   R   C   A *
                                 *****************

                                            #,                                       
                                            ###                                      
                                            ####                                     
                                            #####                                    
                                            ######                                   
                                           ########,                                 
                                     ,,################,,,,,                         
                               ,,#################################,,                 
                          ,,##########################################,,             
                       ,#########################################, ''#####,          
                    ,#############################################,,   '####,        
                  ,##################################################,,,,####,       
                ,###########''''           ''''###############################       
              ,#####''   ,,,,##########,,,,          '''####'''          '####       
            ,##' ,,,,###########################,,,                        '##       
           ' ,,###''''                  '''############,,,                           
         ,,##''                                '''############,,,,        ,,,,,,###''
      ,#''                                            '''#######################'''  
     '                                                          ''''####''''         
             ,#######,   #######,   ,#######,      ##                                
            ,#'     '#,  ##    ##  ,#'     '#,    #''#        ,####,    ,#,          
            ##       ##  ##   ,#'  ##            #'  '#       #'       ,# #          
            ##       ##  #######   ##           ,######,      #####,      #          
            '#,     ,#'  ##    ##  '#,     ,#' ,#      #,     #,   #      #          
             '#######'   ##     ##  '#######'  #'      '#     '####' #    #          



                #########################################################
                #                        -***-                          #
                #          Department of theory and spectroscopy        #
                #                                                       #
                #                      Frank Neese                      #
                #                                                       #
                #     Directorship, Architecture, Infrastructure        #
                #                    SHARK, DRIVERS                     #
                #        Core code/Algorithms in most modules           #
                #                                                       #
                #        Max Planck Institute fuer Kohlenforschung      #
                #                Kaiser Wilhelm Platz 1                 #
                #                 D-45470 Muelheim/Ruhr                 #
                #                      Germany                          #
                #                                                       #
                #                  All rights reserved                  #
                #                        -***-                          #
                #########################################################


                         Program Version 6.1.0  -  RELEASE   -
                                (GIT: $679e74b$)
                          ($2025-06-10 18:02:51 +0200$)


 With contributions from (in alphabetic order):
[Max-Planck-Institut fuer Kohlenforschung]                               
  Daniel Aravena         : Magnetic Suceptibility                        
  Michael Atanasov       : Ab Initio Ligand Field Theory (pilot matlab implementation)
  Alexander A. Auer      : GIAO ZORA, VPT2 properties, NMR spectrum      
  Ute Becker             : All parallelization in ORCA, NUMFREQ, NUMCALC 
  Giovanni Bistoni       : ED, misc. LED, open-shell LED, HFLD           
  Dmytro Bykov           : pre 5.0 version of the SCF Hessian            
  Marcos Casanova-Páez   : Triplet and SCS-CIS(D). UHF-(DLPNO)-IP/EA/STEOM-CCSD. UHF-CVS-IP/STEOM-CCSD   
  Vijay G. Chilkuri      : MRCI spin determinant printing, contributions to CSF-ICE 
  Pauline Colinet        : FMM embedding                                 
  Dipayan Datta          : RHF DLPNO-CCSD density                        
  Achintya Kumar Dutta   : EOM-CC, STEOM-CC                              
  Nicolas Foglia         : Exact transition moments, OPA infrastructure, MCD improvements    
  Dmitry Ganyushin       : Spin-Orbit,Spin-Spin,Magnetic field MRCI      
  Miquel Garcia-Rates    : C-PCM and meta-GGA Hessian, CCSD/C-PCM, Gaussian charge scheme 
  Tiago L. C. Gouveia    : GS-ROHF, GS-ROCIS                             
  Yang Guo               : DLPNO-NEVPT2, F12-NEVPT2, CIM, IAO-localization        
  Andreas Hansen         : Spin unrestricted coupled pair/coupled cluster methods 
  Ingolf Harden          : AUTO-CI MPn and infrastructure                
  Benjamin Helmich-Paris : MC-RPA, TRAH-(SCF,CASSCF), AVAS, COSX integrals, SCF dyn. polar., MC-PDFT, srDFT 
  Lee Huntington         : MR-EOM, pCC                                   
  Robert Izsak           : Overlap fitted RIJCOSX, COSX-SCS-MP3, EOM     
  Riya Kayal             : Wick's Theorem for AUTO-CI, AUTO-CI UHF-CCSDT 
  Emily Kempfer          : AUTO-CI RHF CISDT and CCSDT, approximate NEVPT4
  Christian Kollmar      : KDIIS, OOCD, Brueckner-CCSD(T), CCSD density, CASPT2, CASPT2-K, improved NEVPT2 
  Axel Koslowski         : Symmetry handling                             
  Simone Kossmann        : meta-GGA functionals, TD-DFT gradient, OOMP2, (MP2 Hessian; deprecated post 5.0) 
  Lucas Lang             : DCDCAS, Hyperfine gauge corrections, ICE-SOC+SSC
  Marvin Lechner         : AUTO-CI (C++ implementation), FIC-MRCC        
  Spencer Leger          : CASSCF response                               
  Dagmar Lenk            : GEPOL surface, SMD, ORCA-2-JSON               
  Dimitrios Liakos       : Extrapolation schemes; Compound Job, Property file
  Dimitrios Manganas     : Further ROCIS development; embedding schemes. LFT, Crystal Embedding 
  Dimitrios Pantazis     : SARC Basis sets                               
  Anastasios Papadopoulos: AUTO-CI, single reference methods and gradients 
  Taras Petrenko         : pre 6.0 DFT Hessian and TD-DFT gradient,  ECA, NRVS 
  Petra Pikulova         : Analytic Raman intensities                    
  Peter Pinski           : DLPNO-MP2, DLPNO-MP2 Gradient                 
  Shashank Vittal Rao    : ES-AILFT, MagRelax                            
  Christoph Reimann      : Effective Core Potentials                     
  Marius Retegan         : Local ZFS, SOC                                
  Christoph Riplinger    : Optimizer, TS searches, QM/MM, DLPNO-CCSD(T), (RO)-DLPNO pert. Triples 
  Michael Roemelt        : Original ROCIS implementation, recursive CI coupling coefficients
  Masaaki Saitow         : Open-shell DLPNO-CCSD energy and density      
  Barbara Sandhoefer     : DKH picture change effects                    
  Yorick L. A. Schmerwitz: GMF and freeze-and-release deltaSCF, NEB S-IDPP initial path                    
  Kantharuban Sivalingam : CASSCF convergence/infrastructure, NEVPT2, NEVPT3, NEVPT4(SD), FIC-MRCI and CEPA variants
  Bernardo de Souza      : ESD, SOC TD-DFT                               
  Georgi L. Stoychev     : AutoAux, RI-MP2 NMR, DLPNO-MP2 response, X2C  
  Van Anh Tran           : RI-MP2 g-tensors                              
  Willem Van den Heuvel  : Paramagnetic NMR                              
  Zikuan Wang            : NOTCH, Electric field optimization            
  Frank Wennmohs         : Technical directorship and infrastructure     
  Hang Xu                : AUTO-CI-Response properties                   
                                                                         
[FACCTs GmbH]                                                            
  Markus Bursch, Nicolas Foglia, Miquel Garcia-Rates, Ingolf Harden, Hagen Neugebauer, Anastasios Papadopoulos, 
  Christoph Riplinger, Bernardo de Souza, Georgi L. Stoychev                                                    
                                                                 
  APM, various basis sets, CI-OPT, improved COSX, DLPNO-Multilevel,           
  DOCKER, DRACO, updates on ESD, Fragmentator, GOAT, IRC, LR-CPCM, L-BFGS, MBIS, meta-GGA TD-DFT gradient, ML-optimized integration grids, 
  MM, NACMEs, nearIR, NEB, NEB-TS, NL-DFT gradient (VV10), 2- and 3-layer-ONIOM, interface openCOSMO-RS, QMMM,   
  Crystal-QMMM, RESP, rigid body optimization, SF, symmetry and pop. for TD-DFT, various functionals, SOLVATOR                                   
                                                                         
[Other institutions]                                                     
  V. Asgeirsson          : NEB                                           
  Christoph Bannwarth    : sTDA-DFT, sTD-DFT, PBEh-3c, B97-3c, D3        
  Giovanni Bistoni       : ETS/NOCV, ADLD/ADEX, COVALED                  
  Martin Brehm           : Molecular dynamics                            
  Ronald Cardenas        : ETS/NOCV                                      
  Martina Colucci        : COVALED                                       
  Sebastian Ehlert       : rSCAN, r2SCAN, r2SCAN-3c, D4, dhf basis sets  
  Marvin Friede          : D4 for Fr, Ra, Ac-Lr                          
  Lars Goerigk           : TD-DFT with DH, B97 family of functionals     
  Stefan Grimme          : VdW corrections, initial TS optimization, DFT functionals, gCP, sTDA/sTD-DF 
  Waldemar Hujo          : DFT-NL                                        
  H. Jonsson             : NEB                                           
  Holger Kruse           : gCP                                           
  Marcel Mueller         : wB97X-3c, vDZP basis set                      
  Hagen Neugebauer       : wr2SCAN, Native XTB                           
  Gianluca Regni         : ADLD/ADEX                                     
  Tobias Risthaus        : pre 6.0 range-separated hybrid DFT and stability analysis
  Lukas Wittmann         : regularized MP2, r2SCAN double-hybrids, wr2SCAN        
                                                                         
We gratefully acknowledge several colleagues who have allowed us to      
interface, adapt or use parts of their codes:                            
  Ed Valeev, F. Pavosevic, A. Kumar             : LibInt (2-el integral package), F12 methods 
  Garnet Chan, S. Sharma, J. Yang, R. Olivares  : DMRG                   
  Ulf Ekstrom                                   : XCFun DFT Library      
  Mihaly Kallay                                 : mrcc  (arbitrary order and MRCC methods)
  Frank Weinhold                                : gennbo (NPA and NBO analysis)           
  Simon Mueller                                 : openCOSMO-RS                            
  Christopher J. Cramer and Donald G. Truhlar   : smd solvation model                     
  S Lehtola, MJT Oliveira, MAL Marques          : LibXC Library                           
  Liviu Ungur et al                             : ANISO software                          


 Your calculation uses the libint2 library for the computation of 2-el integrals
 For citations please refer to: http://libint.valeyev.net

 Your ORCA version has been built with support for libXC version: 7.0.0
 For citations please refer to: https://libxc.gitlab.io

 This ORCA versions uses:
   CBLAS   interface :  Fast vector & matrix operations
   LAPACKE interface :  Fast linear algebra routines
   SCALAPACK package :  Parallel linear algebra routines
   Shared memory     :  Shared parallel matrices
   BLAS/LAPACK       :  OpenBLAS 0.3.29  USE64BITINT DYNAMIC_ARCH NO_AFFINITY Haswell SINGLE_THREADED
        Core in use  :  Haswell
   Copyright (c) 2011-2014, The OpenBLAS Project


  ***********************************
  * Starting time: Mon Jul 28 17:48:21 2025
  * Host name:     LouiePC
  * Process ID:    380817
  * Working dir.:  /home/louie/skunkworks/CBRdb/tests/tmp
  ***********************************

Your calculation utilizes the geometrical counterpoise correction gCP
Please cite in your paper:
H.Kruse, S. Grimme J.Chem.Phys., 136, (2012), 154101 
   

Your calculation utilizes the atom-pairwise dispersion correction
based on EEQ partial charges (D4)


================================================================================

----- Orbital basis set information -----
Your calculation utilizes the basis: def2-QZVP
   F. Weigend and R. Ahlrichs, Phys. Chem. Chem. Phys. 7, 3297 (2005).

----- AuxJ basis set information -----
Your calculation utilizes the basis: def2-mTZVPP/J
   Stefan Grimme, Andreas Hansen, Sebastian Ehlert, and Jan-Michael Mewes 
   J. Chem. Phys. 154, 000000 (2021). DOI: 10.1063/5.0040021

================================================================================
                                        WARNINGS
                       Please study these warnings very carefully!
================================================================================



WARNING: SCAN, rSCAN, or r2SCAN functional requested.
  ===> : libXC variant has now been activated.



WARNING: Geometry Optimization
  ===> : Switching off AutoStart
         For restart on a previous wavefunction, please use MOREAD

================================================================================
                                       INPUT FILE
================================================================================
NAME = orca.inp
|  1> ! r2SCAN-3c  def2-QZVP OPT FREQ 
|  2> %pal nprocs 10 end
|  3>     %freq
|  4>         Temp 300, 400
|  5>         Pressure 1.0, 2.0
|  6>     end
|  7>      
|  8> *xyz 0 1 
|  9> O   0.8946 -2.5997 -0.2443
| 10> C   0.5691 -1.5462 0.6536
| 11> C   0.5141 -0.2387 -0.127
| 12> C   0.148 0.9705 0.7359
| 13> C   1.3449 1.7726 1.2543
| 14> C   2.2487 1.01 2.2072
| 15> H   0.9148 -3.4213 0.2755
| 16> H   -0.4024 -1.7676 1.1072
| 17> H   1.3267 -1.5214 1.4397
| 18> H   1.4575 -0.0737 -0.6615
| 19> H   -0.2455 -0.353 -0.9119
| 20> H   -0.4949 0.67 1.5718
| 21> H   -0.4506 1.6535 0.1193
| 22> H   1.9389 2.1393 0.4087
| 23> H   0.9625 2.6592 1.7746
| 24> H   2.9906 1.6872 2.6428
| 25> H   1.6752 0.5647 3.0259
| 26> H   2.7957 0.2182 1.6876
| 27> *
| 28> 
| 29>                          ****END OF INPUT****
================================================================================

                       *****************************
                       * Geometry Optimization Run *
                       *****************************

Geometry optimization settings:
Update method            Update   .... BFGS
Choice of coordinates    CoordSys .... (2022) Redundant Internals
Initial Hessian          InHess   .... Almloef's Model
Max. no of cycles        MaxIter  .... 54

Convergence Tolerances:
Energy Change            TolE     ....  5.0000e-06 Eh
Max. Gradient            TolMAXG  ....  3.0000e-04 Eh/bohr
RMS Gradient             TolRMSG  ....  1.0000e-04 Eh/bohr
Max. Displacement        TolMAXD  ....  4.0000e-03 bohr
RMS Displacement         TolRMSD  ....  2.0000e-03 bohr
Strict Convergence                .... False

------------------------------------------------------------------------------
                        ORCA OPTIMIZATION COORDINATE SETUP
------------------------------------------------------------------------------

The optimization will be done in redundant internal coordinates (2022)
Making redundant internal coordinates   ...  (2022 redundants) done
Evaluating the initial hessian          ...  (Almloef) done
Evaluating the coordinates              ...  done
Calculating the B-matrix                .... done
Calculating the G-matrix                .... done
The number of degrees of freedom        ....   75

    -----------------------------------------------------------------
                    Redundant Internal Coordinates


    -----------------------------------------------------------------
         Definition                    Initial Value    Approx d2E/dq
    -----------------------------------------------------------------
      1. B(C   1,O   0)                  1.4220         0.497563   
      2. B(C   2,C   1)                  1.5238         0.382204   
      3. B(C   3,C   2)                  1.5300         0.373624   
      4. B(C   4,C   3)                  1.5312         0.371887   
      5. B(C   5,C   4)                  1.5187         0.389417   
      6. B(H   6,O   0)                  0.9724         0.496741   
      7. B(H   7,C   1)                  1.0948         0.353808   
      8. B(H   8,C   1)                  1.0920         0.357427   
      9. B(H   9,C   2)                  1.0968         0.351246   
     10. B(H  10,C   2)                  1.0982         0.349367   
     11. B(H  11,C   3)                  1.0965         0.351581   
     12. B(H  12,C   3)                  1.0977         0.350021   
     13. B(H  13,C   4)                  1.0965         0.351584   
     14. B(H  14,C   4)                  1.0968         0.351198   
     15. B(H  15,C   5)                  1.0949         0.353702   
     16. B(H  16,C   5)                  1.0943         0.354473   
     17. B(H  17,C   5)                  1.0937         0.355262   
     18. A(C   1,O   0,H   6)          107.0483         0.353710   
     19. A(C   2,C   1,H   8)          111.9822         0.325140   
     20. A(O   0,C   1,H   8)          108.2139         0.337604   
     21. A(H   7,C   1,H   8)          108.7817         0.289697   
     22. A(C   2,C   1,H   7)          110.7165         0.324596   
     23. A(O   0,C   1,H   7)          108.3561         0.337032   
     24. A(O   0,C   1,C   2)          108.6930         0.380834   
     25. A(C   3,C   2,H  10)          108.6531         0.322720   
     26. A(C   3,C   2,H   9)          111.2097         0.323004   
     27. A(C   1,C   2,H   9)          110.3462         0.324209   
     28. A(C   1,C   2,C   3)          113.4455         0.364781   
     29. A(C   1,C   2,H  10)          107.5646         0.323924   
     30. A(H   9,C   2,H  10)          105.2062         0.288335   
     31. A(C   2,C   3,C   4)          114.7025         0.363079   
     32. A(H  11,C   3,H  12)          106.2001         0.288463   
     33. A(C   4,C   3,H  12)          106.8872         0.322572   
     34. A(C   2,C   3,H  12)          107.7841         0.322819   
     35. A(C   4,C   3,H  11)          110.1064         0.322807   
     36. A(C   2,C   3,H  11)          110.7109         0.323054   
     37. A(H  13,C   4,H  14)          106.5207         0.288615   
     38. A(C   5,C   4,H  14)          108.4056         0.325199   
     39. A(C   3,C   4,H  14)          108.1501         0.322750   
     40. A(C   5,C   4,H  13)          109.2331         0.325258   
     41. A(C   3,C   4,H  13)          109.7268         0.322808   
     42. A(C   3,C   4,C   5)          114.4919         0.365659   
     43. A(H  15,C   5,H  17)          107.3318         0.289408   
     44. A(C   4,C   5,H  17)          111.2900         0.325815   
     45. A(H  15,C   5,H  16)          108.0087         0.289307   
     46. A(C   4,C   5,H  16)          111.2154         0.325696   
     47. A(H  16,C   5,H  17)          108.8417         0.289506   
     48. A(C   4,C   5,H  15)          110.0173         0.325579   
     49. D(C   2,C   1,O   0,H   6)   -179.4625         0.019566   
     50. D(H   8,C   1,O   0,H   6)     58.7115         0.019566   
     51. D(H   7,C   1,O   0,H   6)    -59.0828         0.019566   
     52. D(C   3,C   2,C   1,H   7)     60.1639         0.011636   
     53. D(H   9,C   2,C   1,O   0)    -55.3790         0.011636   
     54. D(C   3,C   2,C   1,O   0)    179.0718         0.011636   
     55. D(H   9,C   2,C   1,H   7)   -174.2869         0.011636   
     56. D(H   9,C   2,C   1,H   8)     64.1208         0.011636   
     57. D(C   3,C   2,C   1,H   8)    -61.4284         0.011636   
     58. D(H  11,C   3,C   2,H   9)   -154.8133         0.011146   
     59. D(C   4,C   3,C   2,H  10)   -144.8090         0.011146   
     60. D(C   4,C   3,C   2,H   9)    -29.4716         0.011146   
     61. D(H  11,C   3,C   2,C   1)    -29.7265         0.011146   
     62. D(H  11,C   3,C   2,H  10)     89.8492         0.011146   
     63. D(C   4,C   3,C   2,C   1)     95.6152         0.011146   
     64. D(H  13,C   4,C   3,H  12)    -60.4738         0.011049   
     65. D(H  13,C   4,C   3,H  11)   -175.4107         0.011049   
     66. D(H  13,C   4,C   3,C   2)     58.9321         0.011049   
     67. D(C   5,C   4,C   3,H  12)    176.3028         0.011049   
     68. D(C   5,C   4,C   3,H  11)     61.3658         0.011049   
     69. D(C   5,C   4,C   3,C   2)    -64.2913         0.011049   
     70. D(H  16,C   5,C   4,H  13)   -175.7236         0.012058   
     71. D(H  16,C   5,C   4,C   3)    -52.2349         0.012058   
     72. D(H  15,C   5,C   4,H  14)    -51.0428         0.012058   
     73. D(H  15,C   5,C   4,H  13)     64.6474         0.012058   
     74. D(H  16,C   5,C   4,H  14)     68.5861         0.012058   
     75. D(H  15,C   5,C   4,C   3)   -171.8638         0.012058   
    -----------------------------------------------------------------

Number of atoms                         .... 18
Number of degrees of freedom            .... 75


         *************************************************************
         *                GEOMETRY OPTIMIZATION CYCLE   1            *
         *************************************************************
---------------------------------
CARTESIAN COORDINATES (ANGSTROEM)
---------------------------------
  O      0.894600   -2.599700   -0.244300
  C      0.569100   -1.546200    0.653600
  C      0.514100   -0.238700   -0.127000
  C      0.148000    0.970500    0.735900
  C      1.344900    1.772600    1.254300
  C      2.248700    1.010000    2.207200
  H      0.914800   -3.421300    0.275500
  H     -0.402400   -1.767600    1.107200
  H      1.326700   -1.521400    1.439700
  H      1.457500   -0.073700   -0.661500
  H     -0.245500   -0.353000   -0.911900
  H     -0.494900    0.670000    1.571800
  H     -0.450600    1.653500    0.119300
  H      1.938900    2.139300    0.408700
  H      0.962500    2.659200    1.774600
  H      2.990600    1.687200    2.642800
  H      1.675200    0.564700    3.025900
  H      2.795700    0.218200    1.687600

----------------------------
CARTESIAN COORDINATES (A.U.)
----------------------------
  NO LB      ZA    FRAG     MASS         X           Y           Z
   0 O     8.0000    0    15.999    1.690549   -4.912721   -0.461660
   1 C     6.0000    0    12.011    1.075443   -2.921895    1.235125
   2 C     6.0000    0    12.011    0.971508   -0.451078   -0.239995
   3 C     6.0000    0    12.011    0.279679    1.833979    1.390649
   4 C     6.0000    0    12.011    2.541493    3.349729    2.370283
   5 C     6.0000    0    12.011    4.249427    1.908623    4.171004
   6 H     1.0000    0     1.008    1.728721   -6.465320    0.520620
   7 H     1.0000    0     1.008   -0.760426   -3.340280    2.092305
   8 H     1.0000    0     1.008    2.507100   -2.875029    2.720639
   9 H     1.0000    0     1.008    2.754276   -0.139273   -1.250054
  10 H     1.0000    0     1.008   -0.463928   -0.667073   -1.723241
  11 H     1.0000    0     1.008   -0.935225    1.266117    2.970272
  12 H     1.0000    0     1.008   -0.851511    3.124662    0.225444
  13 H     1.0000    0     1.008    3.663990    4.042691    0.772331
  14 H     1.0000    0     1.008    1.818861    5.025160    3.353508
  15 H     1.0000    0     1.008    5.651415    3.188346    4.994168
  16 H     1.0000    0     1.008    3.165669    1.067128    5.718122
  17 H     1.0000    0     1.008    5.283107    0.412338    3.189102

--------------------------------
INTERNAL COORDINATES (ANGSTROEM)
--------------------------------
 O      0   0   0     0.000000000000     0.00000000     0.00000000
 C      1   0   0     1.421983442238     0.00000000     0.00000000
 C      2   1   0     1.523783977472   108.69302657     0.00000000
 C      3   2   1     1.529964136835   113.44553308   179.07180708
 C      4   3   2     1.531232372960   114.70246595    95.61524572
 C      5   4   3     1.518694047529   114.49193093   295.70869888
 H      1   2   3     0.972433360185   107.04833139   180.53748298
 H      2   1   3     1.094798232552   108.35610341   120.37971599
 H      2   1   3     1.092028392488   108.21394696   238.17403354
 H      3   2   1     1.096776554272   110.34624003   304.62100814
 H      3   2   1     1.098237069125   107.56462044    58.87666400
 H      4   3   2     1.096516972053   110.71090281   330.27346913
 H      4   3   2     1.097727889780   107.78410830   214.51930279
 H      5   4   3     1.096514591786   109.72683908    58.93214647
 H      5   4   3     1.096814209427   108.15013907   174.74665884
 H      6   5   4     1.094880271993   110.01733435   188.13617738
 H      6   5   4     1.094286996176   111.21540197   307.76513786
 H      6   5   4     1.093682037889   111.28998983    69.30394116

---------------------------
INTERNAL COORDINATES (A.U.)
---------------------------
 O      0   0   0     0.000000000000     0.00000000     0.00000000
 C      1   0   0     2.687159272801     0.00000000     0.00000000
 C      2   1   0     2.879534404679   108.69302657     0.00000000
 C      3   2   1     2.891213213339   113.44553308   179.07180708
 C      4   3   2     2.893609832288   114.70246595    95.61524572
 C      5   4   3     2.869915831046   114.49193093   295.70869888
 H      1   2   3     1.837632734238   107.04833139   180.53748298
 H      2   1   3     2.068868831425   108.35610341   120.37971599
 H      2   1   3     2.063634592269   108.21394696   238.17403354
 H      3   2   1     2.072607317679   110.34624003   304.62100814
 H      3   2   1     2.075367290766   107.56462044    58.87666400
 H      4   3   2     2.072116778377   110.71090281   330.27346913
 H      4   3   2     2.074405081251   107.78410830   214.51930279
 H      5   4   3     2.072112280324   109.72683908    58.93214647
 H      5   4   3     2.072678475610   108.15013907   174.74665884
 H      6   5   4     2.069023863500   110.01733435   188.13617738
 H      6   5   4     2.067902734684   111.21540197   307.76513786
 H      6   5   4     2.066759529198   111.28998983    69.30394116

---------------------
BASIS SET INFORMATION
---------------------
There are 3 groups of distinct atoms

 Group   1 Type O   : 15s8p3d2f1g contracted to 7s4p3d2f1g pattern {8211111/5111/111/11/1}
 Group   2 Type C   : 15s8p3d2f1g contracted to 7s4p3d2f1g pattern {8211111/5111/111/11/1}
 Group   3 Type H   : 7s3p2d1f contracted to 4s3p2d1f pattern {4111/111/11/1}

Atom   0O    basis set group =>   1
Atom   1C    basis set group =>   2
Atom   2C    basis set group =>   2
Atom   3C    basis set group =>   2
Atom   4C    basis set group =>   2
Atom   5C    basis set group =>   2
Atom   6H    basis set group =>   3
Atom   7H    basis set group =>   3
Atom   8H    basis set group =>   3
Atom   9H    basis set group =>   3
Atom  10H    basis set group =>   3
Atom  11H    basis set group =>   3
Atom  12H    basis set group =>   3
Atom  13H    basis set group =>   3
Atom  14H    basis set group =>   3
Atom  15H    basis set group =>   3
Atom  16H    basis set group =>   3
Atom  17H    basis set group =>   3
---------------------------------
AUXILIARY/J BASIS SET INFORMATION
---------------------------------
There are 3 groups of distinct atoms

 Group   1 Type O   : 8s3p3d contracted to 6s3p3d pattern {311111/111/111}
 Group   2 Type C   : 8s3p3d contracted to 6s3p3d pattern {311111/111/111}
 Group   3 Type H   : 5s2p1d contracted to 3s1p1d pattern {311/2/1}

Atom   0O    basis set group =>   1
Atom   1C    basis set group =>   2
Atom   2C    basis set group =>   2
Atom   3C    basis set group =>   2
Atom   4C    basis set group =>   2
Atom   5C    basis set group =>   2
Atom   6H    basis set group =>   3
Atom   7H    basis set group =>   3
Atom   8H    basis set group =>   3
Atom   9H    basis set group =>   3
Atom  10H    basis set group =>   3
Atom  11H    basis set group =>   3
Atom  12H    basis set group =>   3
Atom  13H    basis set group =>   3
Atom  14H    basis set group =>   3
Atom  15H    basis set group =>   3
Atom  16H    basis set group =>   3
Atom  17H    basis set group =>   3


           ************************************************************
           *        Program running with 10 parallel MPI-processes    *
           *              working on a common directory               *
           ************************************************************
------------------------------------------------------------------------------
                             ORCA STARTUP CALCULATIONS
                           -- RI-GTO INTEGRALS CHOSEN --
------------------------------------------------------------------------------
------------------------------------------------------------------------------
                   ___                                                        
                  /   \      - P O W E R E D   B Y -                         
                 /     \                                                     
                 |  |  |   _    _      __       _____    __    __             
                 |  |  |  | |  | |    /  \     |  _  \  |  |  /  |          
                  \  \/   | |  | |   /    \    | | | |  |  | /  /          
                 / \  \   | |__| |  /  /\  \   | |_| |  |  |/  /          
                |  |  |   |  __  | /  /__\  \  |    /   |      \           
                |  |  |   | |  | | |   __   |  |    \   |  |\   \          
                \     /   | |  | | |  |  |  |  | |\  \  |  | \   \       
                 \___/    |_|  |_| |__|  |__|  |_| \__\ |__|  \__/        
                                                                              
                      - O R C A' S   B I G   F R I E N D -                    
                                      &                                       
                       - I N T E G R A L  F E E D E R -                       
                                                                              
 v1 FN, 2020, v2 2021, v3 2022-2024                                           
------------------------------------------------------------------------------


----------------------
SHARK INTEGRAL PACKAGE
----------------------

Number of atoms                             ...     18
Number of basis functions                   ...    702
Number of shells                            ...    222
Maximum angular momentum                    ...      4
Integral batch strategy                     ... SHARK/LIBINT Hybrid
RI-J (if used) integral strategy            ... SPLIT-RIJ (Revised 2003 algorithm where possible)
Printlevel                                  ...      1
Contraction scheme used                     ... SEGMENTED contraction
Prescreening option                         ... SCHWARTZ
   Thresh                                   ... 2.500e-11
   Tcut                                     ... 2.500e-12
   Tpresel                                  ... 2.500e-12 
Coulomb Range Separation                    ... NOT USED
Exchange Range Separation                   ... NOT USED
Multipole approximations                    ... NOT USED
Finite Nucleus Model                        ... NOT USED
CABS basis                                  ... NOT available
Auxiliary Coulomb fitting basis             ... AVAILABLE
   # of basis functions in Aux-J            ...    312
   # of shells in Aux-J                     ...    132
   Maximum angular momentum in Aux-J        ...      2
Auxiliary J/K fitting basis                 ... NOT available
Auxiliary Correlation fitting basis         ... NOT available
Auxiliary 'external' fitting basis          ... NOT available

Checking pre-screening integrals            ... done (  0.0 sec) Dimension = 222
   => SHARK Basis and OBASIS are compatible. Storing Pre-screening
Shell pair information
Shell pair cut-off parameter TPreSel        ...   2.5e-12
Total number of shell pairs                 ...     24753
Shell pairs after pre-screening             ...     21462
Total number of primitive shell pairs       ...     54921
Primitive shell pairs kept                  ...     37611
          la=0 lb=0:   3489 shell pairs
          la=1 lb=0:   4765 shell pairs
          la=1 lb=1:   1670 shell pairs
          la=2 lb=0:   3197 shell pairs
          la=2 lb=1:   2232 shell pairs
          la=2 lb=2:    773 shell pairs
          la=3 lb=0:   1812 shell pairs
          la=3 lb=1:   1262 shell pairs
          la=3 lb=2:    851 shell pairs
          la=3 lb=3:    250 shell pairs
          la=4 lb=0:    470 shell pairs
          la=4 lb=1:    328 shell pairs
          la=4 lb=2:    219 shell pairs
          la=4 lb=3:    125 shell pairs
          la=4 lb=4:     19 shell pairs

Checking whether 4 symmetric matrices of dimension 702 fit in memory
:Max Core in MB      =   4096.00
 MB in use           =     29.56
 MB left             =   4066.44
 MB needed           =      7.53
 Data fit in memory  = YES
Calculating RI/J V-Matrix + Cholesky decomp.... done (  0.0 sec)
Calculating Nuclear repulsion               ... done (  0.0 sec) ENN=    252.886096524206 Eh

Diagonalization of the overlap matrix:
Smallest eigenvalue                        ... 2.970e-05
Time for diagonalization                   ...    0.039 sec
Threshold for overlap eigenvalues          ... 1.000e-07
Number of eigenvalues below threshold      ... 0
Time for construction of square roots      ...    0.028 sec
Total time needed                          ...    0.070 sec

-------------------
DFT GRID GENERATION
-------------------

General Integration Accuracy     IntAcc      ... 4.388
Radial Grid Type                 RadialGrid  ... OptM3 with GC (2021)
Angular Grid (max. ang.)         AngularGrid ... 4 (Lebedev-302)
Angular grid pruning method      GridPruning ... 4 (adaptive)
Weight generation scheme         WeightScheme... mBecke (2022)
Basis function cutoff            BFCut       ... 1.0000e-11
Integration weight cutoff        WCut        ... 1.0000e-14
Partially contracted basis set               ... off
Rotationally invariant grid construction     ... off
Angular grids for H and He will be reduced by one unit
Diffuse basis detected: some atoms will have their outermost
                        angular grid increased by 1.

Total number of grid points                  ...    76173
Total number of batches                      ...     1199
Average number of points per batch           ...       63
Average number of grid points per atom       ...     4232
Grids setup in   0.3 sec
Initializing property integral containers    ... done (  0.0 sec)

SHARK setup successfully completed in   0.8 seconds

Maximum memory used throughout the entire STARTUP-calculation: 50.6 MB


           ************************************************************
           *        Program running with 10 parallel MPI-processes    *
           *              working on a common directory               *
           ************************************************************
-------------------------------------------------------------------------------
                                 ORCA GUESS
                   Start orbitals & Density for SCF / CASSCF
-------------------------------------------------------------------------------

------------
SCF SETTINGS
------------
Hamiltonian:
 Density Functional     Method          .... DFT(GTOs)
  Functional kind                       .... Exchange
  Functional name                       .... Re-regularized SCAN exchange by Furness et al
  Functional family                     .... MGGA
  Functional refs                              
    [ 0] J. W. Furness, A. D. Kaplan, J. Ning, J. P. Perdew, and J. Sun.,  J. Phys. Chem. Lett. 11, 8208-8215 (2020), doi: 10.1021/acs.jpclett.0c02405
    [ 1] J. W. Furness, A. D. Kaplan, J. Ning, J. P. Perdew, and J. Sun.,  J. Phys. Chem. Lett. 11, 9248-9248 (2020), doi: 10.1021/acs.jpclett.0c03077
  Functional external parameters        .... 6
    Parameter  0 _c1        =  6.670000e-01 : c1 parameter        
    Parameter  1 _c2        =  8.000000e-01 : c2 parameter        
    Parameter  2 _d         =  1.240000e+00 : d parameter         
    Parameter  3 _k1        =  6.500000e-02 : k1 parameter        
    Parameter  4 _eta       =  1.000000e-03 : eta parameter       
    Parameter  5 _dp2       =  3.610000e-01 : dp2 parameter       
  Functional kind                       .... Correlation
  Functional name                       .... Re-regularized SCAN correlation by Furness et al
  Functional family                     .... MGGA
  Functional refs                              
    [ 0] J. W. Furness, A. D. Kaplan, J. Ning, J. P. Perdew, and J. Sun.,  J. Phys. Chem. Lett. 11, 8208-8215 (2020), doi: 10.1021/acs.jpclett.0c02405
    [ 1] J. W. Furness, A. D. Kaplan, J. Ning, J. P. Perdew, and J. Sun.,  J. Phys. Chem. Lett. 11, 9248-9248 (2020), doi: 10.1021/acs.jpclett.0c03077
  Functional external parameters        .... 1
    Parameter  0 _eta       =  1.000000e-03 : Regularization parameter
 Gradients option       PostSCFGGA      .... off
 RI-approximation to the Coulomb term is turned on
   Number of AuxJ basis functions       .... 312


General Settings:
 Integral files         IntName         .... orca
 Hartree-Fock type      HFTyp           .... RHF
 Total Charge           Charge          ....    0
 Multiplicity           Mult            ....    1
 Number of Electrons    NEL             ....   50
 Basis Dimension        Dim             ....  702
 Nuclear Repulsion      ENuc            ....    252.8860965242 Eh

Convergence Acceleration:
 AO-DIIS                CNVDIIS         .... on
   Start iteration      DIISMaxIt       ....    12
   Startup error        DIISStart       ....  0.200000
   # of expansion vecs  DIISMaxEq       ....     5
   Bias factor          DIISBfac        ....   1.050
   Max. coefficient     DIISMaxC        ....  10.000
 MO-DIIS                CNVKDIIS        .... off
 Trust-Rad. Augm. Hess. CNVTRAH         .... auto
   Auto Start mean grad. ratio tolernc. ....  1.125000
   Auto Start start iteration           ....    50
   Auto Start num. interpolation iter.  ....    10
   Max. Number of Micro iterations      ....    24
   Max. Number of Macro iterations      .... Maxiter - #DIIS iter
   Number of Davidson start vectors     ....     2
   Converg. threshold    (grad. norm)   ....   1.000e-05
   Grad. Scal. Fac. for Micro threshold ....   0.100
   Minimum threshold for Micro iter.    ....   1.000e-02
   NR start threshold (gradient norm)   ....   1.000e-04
   Initial trust radius                 ....   0.400
   Minimum AH scaling param. (alpha)    ....   1.000
   Maximum AH scaling param. (alpha)    .... 1000.000
   Quad. conv. algorithm                .... NR
   White noise on init. David. guess    .... on
   Maximum white noise                  ....   0.010
   Pseudo random numbers                .... off
   Inactive MOs                         .... canonical
   Orbital update algorithm             .... Taylor
   Preconditioner                       .... Diag
   Full preconditioner red. dimension   ....   250
   COSX micro iterations for RIJONX calc.... off
 SOSCF                 CNVSOSCF           .... on
   Start iteration     SOSCFMaxIt         ....   150
   Startup grad/error  SOSCFStart         ....  0.003300
   Hessian update      SOSCFHessUp        .... L-BFGS
   Autom. constraints  SOSCFAutoConstrain .... off
 Level Shifting         CNVShift        .... on
   Level shift para.    LevelShift      ....    0.2500
   Turn off err/grad.   ShiftErr        ....    0.0010
 Zerner damping         CNVZerner       .... off
 Static damping         CNVDamp         .... on
   Fraction old density DampFac         ....    0.7000
   Max. Damping (<1)    DampMax         ....    0.9800
   Min. Damping (>=0)   DampMin         ....    0.0000
   Turn off err/grad.   DampErr         ....    0.1000

SCF Procedure:
 Maximum # iterations   MaxIter         ....   125
 SCF integral mode      SCFMode         .... Direct
   Integral package                     .... SHARK and LIBINT hybrid scheme
 Reset frequency        DirectResetFreq ....    20
 Integral Threshold     Thresh          ....  2.500e-11 Eh
 Primitive CutOff       TCut            ....  2.500e-12 Eh

Convergence Tolerance:
 Convergence Check Mode ConvCheckMode   .... Total+1el-Energy
 Convergence forced     ConvForced      .... 0
 Energy Change          TolE            ....  1.000e-08 Eh
 1-El. energy change                    ....  1.000e-05 Eh
 Orbital Gradient       TolG            ....  1.000e-05
 Orbital Rotation angle TolX            ....  1.000e-05
 DIIS Error             TolErr          ....  5.000e-07

------------------------------
INITIAL GUESS: MODEL POTENTIAL
------------------------------
Loading Hartree-Fock densities                     ... done
Calculating cut-offs                               ... done
Initializing the effective Hamiltonian             ... done
Setting up the integral package (SHARK)            ... done
Starting the Coulomb interaction                   ... done (   0.1 sec)
Making the grid                                    ... done (   0.1 sec)
Mapping shells                                     ... done
Starting the XC term evaluation                    ... done (   0.1 sec)
  promolecular density results
     # of electrons  =     49.999399231
     EX              =    -37.266570150
     EC              =     -1.627472290
     EX+EC           =    -38.894042440
Transforming the Hamiltonian                       ... done (   0.0 sec)
Diagonalizing the Hamiltonian                      ... done (   0.0 sec)
Back transforming the eigenvectors                 ... done (   0.0 sec)
Now organizing SCF variables                       ... done
                      ------------------
                      INITIAL GUESS DONE (   0.4 sec)
                      ------------------
             **** ENERGY FILE WAS UPDATED (orca.en.tmp) ****
Finished Guess after   0.8 sec
Maximum memory used throughout the entire GUESS-calculation: 49.7 MB


           ************************************************************
           *        Program running with 10 parallel MPI-processes    *
           *              working on a common directory               *
           ************************************************************

-------------------------------------------------------------------------------------------
                                      ORCA LEAN-SCF
                              memory conserving SCF solver
-------------------------------------------------------------------------------------------

----------------------------------------D-I-I-S--------------------------------------------
Iteration    Energy (Eh)           Delta-E    RMSDP     MaxDP     DIISErr   Damp  Time(sec)
-------------------------------------------------------------------------------------------
               ***  Starting incremental Fock matrix formation  ***
    1    -272.6995539544501526     0.00e+00  1.80e-03  3.56e-02  2.68e-01  0.700   1.0
    2    -272.8149636319660658    -1.15e-01  1.40e-03  2.80e-02  9.83e-02  0.700   1.1
                               ***Turning on AO-DIIS***
    3    -272.8563687155809703    -4.14e-02  5.65e-04  9.72e-03  4.47e-02  0.700   0.9
    4    -272.8812264942778256    -2.49e-02  1.00e-03  1.78e-02  3.11e-02  0.000   0.9
    5    -272.9374804970541391    -5.63e-02  3.56e-04  8.83e-03  1.14e-02  0.000   1.0
                              *** Initializing SOSCF ***
---------------------------------------S-O-S-C-F--------------------------------------
Iteration    Energy (Eh)           Delta-E    RMSDP     MaxDP     MaxGrad    Time(sec)
--------------------------------------------------------------------------------------
    6    -272.9379499885266114    -4.69e-04  1.24e-04  2.78e-03  2.38e-03     1.0
               *** Restarting incremental Fock matrix formation ***
    7    -272.9379894486951343    -3.95e-05  1.28e-04  2.93e-03  4.14e-04     1.0
    8    -272.9379804553764188     8.99e-06  3.82e-05  9.09e-04  6.19e-04     0.7
    9    -272.9379955917753477    -1.51e-05  7.43e-06  1.93e-04  1.19e-05   -17.5
   10    -272.9379955897805985     1.99e-09  1.12e-06  2.66e-05  1.43e-05     0.7
                 **** Energy Check signals convergence ****

               *****************************************************
               *                     SUCCESS                       *
               *           SCF CONVERGED AFTER  10 CYCLES          *
               *****************************************************

             **** ENERGY FILE WAS UPDATED (orca.en.tmp) ****

----------------
TOTAL SCF ENERGY
----------------

Total Energy       :       -272.93799563807147 Eh           -7427.02044 eV

Components:
Nuclear Repulsion  :        252.88609652420601 Eh            6881.38053 eV
Electronic Energy  :       -525.82409216227745 Eh          -14308.40097 eV
One Electron Energy:       -869.61659210019002 Eh          -23663.47050 eV
Two Electron Energy:        343.79249993791257 Eh            9355.06953 eV

Virial components:
Potential Energy   :       -544.57531928840774 Eh          -14818.64780 eV
Kinetic Energy     :        271.63732365033627 Eh            7391.62736 eV
Virial Ratio       :          2.00478826683409

DFT components:
N(Alpha)           :       25.000069884996 electrons
N(Beta)            :       25.000069884996 electrons
N(Total)           :       50.000139769991 electrons
E(X)               :      -38.560711090942 Eh       
E(C)               :       -1.558193615122 Eh       
E(XC)              :      -40.118904706063 Eh       

---------------
SCF CONVERGENCE
---------------

  Last Energy change         ...   -1.9947e-09  Tolerance :   1.0000e-08
  Last MAX-Density change    ...    2.6606e-05  Tolerance :   1.0000e-07
  Last RMS-Density change    ...    1.1215e-06  Tolerance :   5.0000e-09
  Last DIIS Error            ...    2.3801e-03  Tolerance :   5.0000e-07
  Last Orbital Gradient      ...    1.4254e-05  Tolerance :   1.0000e-05
  Last Orbital Rotation      ...    1.2750e-05  Tolerance :   1.0000e-05


----------------
ORBITAL ENERGIES
----------------

  NO   OCC          E(Eh)            E(eV) 
   0   2.0000     -18.948103      -515.6041 
   1   2.0000     -10.074380      -274.1378 
   2   2.0000     -10.029495      -272.9164 
   3   2.0000     -10.028406      -272.8868 
   4   2.0000     -10.026751      -272.8418 
   5   2.0000     -10.020640      -272.6755 
   6   2.0000      -0.980056       -26.6687 
   7   2.0000      -0.769114       -20.9287 
   8   2.0000      -0.709334       -19.3020 
   9   2.0000      -0.642514       -17.4837 
  10   2.0000      -0.572608       -15.5815 
  11   2.0000      -0.534928       -14.5561 
  12   2.0000      -0.473082       -12.8732 
  13   2.0000      -0.444683       -12.1004 
  14   2.0000      -0.423302       -11.5186 
  15   2.0000      -0.404357       -11.0031 
  16   2.0000      -0.383863       -10.4455 
  17   2.0000      -0.354383        -9.6432 
  18   2.0000      -0.345754        -9.4085 
  19   2.0000      -0.335484        -9.1290 
  20   2.0000      -0.307587        -8.3699 
  21   2.0000      -0.297118        -8.0850 
  22   2.0000      -0.290124        -7.8947 
  23   2.0000      -0.282807        -7.6956 
  24   2.0000      -0.235497        -6.4082 
  25   0.0000       0.021357         0.5812 
  26   0.0000       0.034532         0.9397 
  27   0.0000       0.054225         1.4755 
  28   0.0000       0.058344         1.5876 
  29   0.0000       0.069028         1.8783 
  30   0.0000       0.088912         2.4194 
  31   0.0000       0.093251         2.5375 
  32   0.0000       0.103414         2.8140 
  33   0.0000       0.109562         2.9813 
  34   0.0000       0.120833         3.2880 
  35   0.0000       0.127173         3.4605 
*Only the first 10 virtual orbitals were printed.

                    ********************************
                    * MULLIKEN POPULATION ANALYSIS *
                    ********************************

-----------------------
MULLIKEN ATOMIC CHARGES
-----------------------
   0 O :   -0.440193
   1 C :    0.121214
   2 C :    0.007761
   3 C :   -0.021487
   4 C :   -0.031134
   5 C :   -0.007093
   6 H :    0.225901
   7 H :    0.021654
   8 H :    0.035657
   9 H :    0.014263
  10 H :    0.017346
  11 H :   -0.002655
  12 H :    0.018064
  13 H :    0.009782
  14 H :    0.015136
  15 H :    0.004687
  16 H :    0.002201
  17 H :    0.008897
Sum of atomic charges:   -0.0000000

--------------------------------
MULLIKEN REDUCED ORBITAL CHARGES
--------------------------------
  0 O s       :     3.852271  s :     3.852271
      pz      :     1.507839  p :     4.556298
      px      :     1.838284
      py      :     1.210175
      dz2     :     0.005499  d :     0.028781
      dxz     :     0.004634
      dyz     :     0.011445
      dx2y2   :     0.004098
      dxy     :     0.003106
      f0      :     0.000182  f :     0.002670
      f+1     :     0.000121
      f-1     :     0.000541
      f+2     :     0.000639
      f-2     :     0.000465
      f+3     :     0.000317
      f-3     :     0.000403
      g0      :     0.000015  g :     0.000174
      g+1     :     0.000001
      g-1     :     0.000029
      g+2     :     0.000032
      g-2     :     0.000014
      g+3     :     0.000031
      g-3     :     0.000042
      g+4     :     0.000004
      g-4     :     0.000005

  1 C s       :     3.318550  s :     3.318550
      pz      :     0.802943  p :     2.452748
      px      :     0.924649
      py      :     0.725156
      dz2     :     0.010317  d :     0.088659
      dxz     :     0.017603
      dyz     :     0.022906
      dx2y2   :     0.015662
      dxy     :     0.022170
      f0      :     0.001049  f :     0.016500
      f+1     :     0.000547
      f-1     :     0.004278
      f+2     :     0.003939
      f-2     :     0.003828
      f+3     :     0.000848
      f-3     :     0.002011
      g0      :     0.000148  g :     0.002330
      g+1     :     0.000042
      g-1     :     0.000272
      g+2     :     0.000468
      g-2     :     0.000146
      g+3     :     0.000477
      g-3     :     0.000471
      g+4     :     0.000165
      g-4     :     0.000140

  2 C s       :     3.300273  s :     3.300273
      pz      :     0.878644  p :     2.624567
      px      :     0.899546
      py      :     0.846376
      dz2     :     0.007606  d :     0.056102
      dxz     :     0.009337
      dyz     :     0.012760
      dx2y2   :     0.013475
      dxy     :     0.012923
      f0      :     0.000191  f :     0.009937
      f+1     :    -0.000003
      f-1     :     0.002251
      f+2     :     0.003206
      f-2     :     0.001879
      f+3     :     0.001034
      f-3     :     0.001380
      g0      :     0.000078  g :     0.001361
      g+1     :     0.000022
      g-1     :     0.000168
      g+2     :     0.000292
      g-2     :     0.000059
      g+3     :     0.000276
      g-3     :     0.000298
      g+4     :     0.000089
      g-4     :     0.000079

  3 C s       :     3.304930  s :     3.304930
      pz      :     0.889064  p :     2.652227
      px      :     0.880063
      py      :     0.883100
      dz2     :     0.008597  d :     0.053783
      dxz     :     0.010674
      dyz     :     0.011806
      dx2y2   :     0.011608
      dxy     :     0.011098
      f0      :     0.000175  f :     0.009206
      f+1     :     0.000620
      f-1     :     0.001453
      f+2     :     0.001827
      f-2     :     0.002648
      f+3     :     0.001250
      f-3     :     0.001234
      g0      :     0.000086  g :     0.001341
      g+1     :     0.000082
      g-1     :     0.000099
      g+2     :     0.000120
      g-2     :     0.000173
      g+3     :     0.000219
      g-3     :     0.000289
      g+4     :     0.000131
      g-4     :     0.000143

  4 C s       :     3.309073  s :     3.309073
      pz      :     0.896638  p :     2.653456
      px      :     0.860990
      py      :     0.895827
      dz2     :     0.011395  d :     0.058038
      dxz     :     0.015596
      dyz     :     0.008068
      dx2y2   :     0.009372
      dxy     :     0.013608
      f0      :     0.000426  f :     0.009210
      f+1     :     0.001158
      f-1     :     0.000890
      f+2     :     0.001355
      f-2     :     0.003096
      f+3     :     0.001232
      f-3     :     0.001052
      g0      :     0.000086  g :     0.001358
      g+1     :     0.000129
      g-1     :     0.000080
      g+2     :     0.000049
      g-2     :     0.000279
      g+3     :     0.000203
      g-3     :     0.000289
      g+4     :     0.000125
      g-4     :     0.000118

  5 C s       :     3.303619  s :     3.303619
      pz      :     0.886722  p :     2.669890
      px      :     0.893949
      py      :     0.889220
      dz2     :     0.006643  d :     0.027997
      dxz     :     0.003624
      dyz     :     0.007166
      dx2y2   :     0.003726
      dxy     :     0.006838
      f0      :    -0.000172  f :     0.004735
      f+1     :     0.000800
      f-1     :     0.000508
      f+2     :     0.000532
      f-2     :     0.002435
      f+3     :     0.000526
      f-3     :     0.000105
      g0      :     0.000063  g :     0.000852
      g+1     :     0.000082
      g-1     :     0.000067
      g+2     :     0.000030
      g-2     :     0.000205
      g+3     :     0.000150
      g-3     :     0.000178
      g+4     :     0.000054
      g-4     :     0.000025

  6 H s       :     0.678822  s :     0.678822
      pz      :     0.021397  p :     0.080375
      px      :     0.039989
      py      :     0.018989
      dz2     :     0.003166  d :     0.013339
      dxz     :     0.001940
      dyz     :     0.001809
      dx2y2   :     0.001677
      dxy     :     0.004747
      f0      :     0.000066  f :     0.001563
      f+1     :     0.000005
      f-1     :     0.000487
      f+2     :     0.000132
      f-2     :     0.000354
      f+3     :     0.000357
      f-3     :     0.000162

  7 H s       :     0.948233  s :     0.948233
      pz      :     0.012243  p :     0.025656
      px      :     0.002461
      py      :     0.010951
      dz2     :     0.000507  d :     0.004187
      dxz     :     0.001532
      dyz     :     0.000726
      dx2y2   :     0.000179
      dxy     :     0.001241
      f0      :     0.000008  f :     0.000271
      f+1     :     0.000072
      f-1     :     0.000007
      f+2     :     0.000054
      f-2     :     0.000065
      f+3     :     0.000024
      f-3     :     0.000041

  8 H s       :     0.929279  s :     0.929279
      pz      :     0.008350  p :     0.030072
      px      :     0.008314
      py      :     0.013407
      dz2     :     0.001673  d :     0.004701
      dxz     :     0.000178
      dyz     :     0.001568
      dx2y2   :     0.000494
      dxy     :     0.000787
      f0      :     0.000044  f :     0.000292
      f+1     :     0.000084
      f-1     :     0.000048
      f+2     :     0.000017
      f-2     :     0.000063
      f+3     :     0.000022
      f-3     :     0.000013

  9 H s       :     0.950738  s :     0.950738
      pz      :     0.010711  p :     0.030155
      px      :     0.006983
      py      :     0.012460
      dz2     :     0.000897  d :     0.004559
      dxz     :     0.000991
      dyz     :     0.000706
      dx2y2   :     0.000497
      dxy     :     0.001469
      f0      :     0.000000  f :     0.000286
      f+1     :     0.000101
      f-1     :     0.000009
      f+2     :     0.000040
      f-2     :     0.000060
      f+3     :     0.000031
      f-3     :     0.000044

 10 H s       :     0.947241  s :     0.947241
      pz      :     0.006935  p :     0.030643
      px      :     0.011136
      py      :     0.012573
      dz2     :     0.001430  d :     0.004493
      dxz     :     0.000052
      dyz     :     0.001279
      dx2y2   :     0.000773
      dxy     :     0.000958
      f0      :     0.000045  f :     0.000277
      f+1     :     0.000067
      f-1     :     0.000040
      f+2     :     0.000017
      f-2     :     0.000062
      f+3     :     0.000025
      f-3     :     0.000021

 11 H s       :     0.966376  s :     0.966376
      pz      :     0.008460  p :     0.031536
      px      :     0.010045
      py      :     0.013031
      dz2     :     0.001312  d :     0.004456
      dxz     :     0.000602
      dyz     :     0.001044
      dx2y2   :     0.000764
      dxy     :     0.000734
      f0      :     0.000048  f :     0.000287
      f+1     :     0.000041
      f-1     :     0.000040
      f+2     :     0.000080
      f-2     :     0.000042
      f+3     :     0.000017
      f-3     :     0.000019

 12 H s       :     0.946788  s :     0.946788
      pz      :     0.011598  p :     0.030475
      px      :     0.010072
      py      :     0.008805
      dz2     :     0.001265  d :     0.004399
      dxz     :     0.000594
      dyz     :     0.000576
      dx2y2   :     0.001376
      dxy     :     0.000587
      f0      :     0.000013  f :     0.000274
      f+1     :     0.000027
      f-1     :     0.000069
      f+2     :     0.000057
      f-2     :     0.000017
      f+3     :     0.000045
      f-3     :     0.000046

 13 H s       :     0.956768  s :     0.956768
      pz      :     0.006591  p :     0.029071
      px      :     0.009799
      py      :     0.012682
      dz2     :     0.001140  d :     0.004114
      dxz     :     0.000403
      dyz     :     0.001216
      dx2y2   :     0.000613
      dxy     :     0.000743
      f0      :     0.000047  f :     0.000264
      f+1     :     0.000028
      f-1     :     0.000043
      f+2     :     0.000053
      f-2     :     0.000066
      f+3     :     0.000013
      f-3     :     0.000016

 14 H s       :     0.950664  s :     0.950664
      pz      :     0.011862  p :     0.029713
      px      :     0.011900
      py      :     0.005952
      dz2     :     0.001038  d :     0.004222
      dxz     :     0.000677
      dyz     :     0.000513
      dx2y2   :     0.001002
      dxy     :     0.000993
      f0      :     0.000004  f :     0.000264
      f+1     :     0.000030
      f-1     :     0.000066
      f+2     :     0.000041
      f-2     :     0.000023
      f+3     :     0.000040
      f-3     :     0.000060

 15 H s       :     0.952843  s :     0.952843
      pz      :     0.013341  p :     0.037932
      px      :     0.011641
      py      :     0.012951
      dz2     :     0.000615  d :     0.004252
      dxz     :     0.000857
      dyz     :     0.000756
      dx2y2   :     0.001621
      dxy     :     0.000403
      f0      :     0.000008  f :     0.000286
      f+1     :     0.000047
      f-1     :     0.000035
      f+2     :     0.000058
      f-2     :     0.000042
      f+3     :     0.000040
      f-3     :     0.000057

 16 H s       :     0.958505  s :     0.958505
      pz      :     0.009181  p :     0.034839
      px      :     0.012223
      py      :     0.013434
      dz2     :     0.001449  d :     0.004160
      dxz     :     0.000478
      dyz     :     0.000845
      dx2y2   :     0.000726
      dxy     :     0.000662
      f0      :     0.000065  f :     0.000296
      f+1     :     0.000049
      f-1     :     0.000048
      f+2     :     0.000065
      f-2     :     0.000035
      f+3     :     0.000019
      f-3     :     0.000015

 17 H s       :     0.952466  s :     0.952466
      pz      :     0.013288  p :     0.034032
      px      :     0.011409
      py      :     0.009335
      dz2     :     0.001060  d :     0.004294
      dxz     :     0.000716
      dyz     :     0.000507
      dx2y2   :     0.001178
      dxy     :     0.000834
      f0      :     0.000007  f :     0.000311
      f+1     :     0.000043
      f-1     :     0.000056
      f+2     :     0.000061
      f-2     :     0.000027
      f+3     :     0.000038
      f-3     :     0.000079



                     *******************************
                     * LOEWDIN POPULATION ANALYSIS *
                     *******************************

----------------------
LOEWDIN ATOMIC CHARGES
----------------------
   0 O :    0.611293
   1 C :   -0.114603
   2 C :    0.093686
   3 C :    0.097469
   4 C :    0.075091
   5 C :    0.221124
   6 H :   -0.355018
   7 H :   -0.072785
   8 H :   -0.076546
   9 H :   -0.045173
  10 H :   -0.046216
  11 H :   -0.048280
  12 H :   -0.047359
  13 H :   -0.050446
  14 H :   -0.051925
  15 H :   -0.063403
  16 H :   -0.062830
  17 H :   -0.064079

-------------------------------
LOEWDIN REDUCED ORBITAL CHARGES
-------------------------------
  0 O s       :     3.069395  s :     3.069395
      pz      :     1.430102  p :     4.181566
      px      :     1.550727
      py      :     1.200737
      dz2     :     0.019328  d :     0.118294
      dxz     :     0.015504
      dyz     :     0.041018
      dx2y2   :     0.028804
      dxy     :     0.013640
      f0      :     0.002042  f :     0.018779
      f+1     :     0.000770
      f-1     :     0.005705
      f+2     :     0.003702
      f-2     :     0.002927
      f+3     :     0.001736
      f-3     :     0.001898
      g0      :     0.000011  g :     0.000673
      g+1     :     0.000010
      g-1     :     0.000118
      g+2     :     0.000053
      g-2     :     0.000071
      g+3     :     0.000157
      g-3     :     0.000124
      g+4     :     0.000063
      g-4     :     0.000065

  1 C s       :     2.568847  s :     2.568847
      pz      :     0.867414  p :     2.620627
      px      :     0.947651
      py      :     0.805562
      dz2     :     0.098892  d :     0.715690
      dxz     :     0.180411
      dyz     :     0.179875
      dx2y2   :     0.149834
      dxy     :     0.106678
      f0      :     0.017283  f :     0.192312
      f+1     :     0.009830
      f-1     :     0.054026
      f+2     :     0.026351
      f-2     :     0.038167
      f+3     :     0.024974
      f-3     :     0.021681
      g0      :     0.001233  g :     0.017127
      g+1     :     0.000364
      g-1     :     0.002929
      g+2     :     0.002675
      g-2     :     0.001929
      g+3     :     0.002852
      g-3     :     0.002542
      g+4     :     0.001340
      g-4     :     0.001263

  2 C s       :     2.547496  s :     2.547496
      pz      :     0.898255  p :     2.709690
      px      :     0.925557
      py      :     0.885877
      dz2     :     0.062766  d :     0.528931
      dxz     :     0.137908
      dyz     :     0.124471
      dx2y2   :     0.120455
      dxy     :     0.083332
      f0      :     0.010445  f :     0.113496
      f+1     :     0.008449
      f-1     :     0.025330
      f+2     :     0.016314
      f-2     :     0.019348
      f+3     :     0.020115
      f-3     :     0.013496
      g0      :     0.000551  g :     0.006700
      g+1     :     0.000200
      g-1     :     0.000968
      g+2     :     0.000984
      g-2     :     0.000587
      g+3     :     0.001242
      g-3     :     0.000832
      g+4     :     0.000576
      g-4     :     0.000761

  3 C s       :     2.543677  s :     2.543677
      pz      :     0.909786  p :     2.699199
      px      :     0.897343
      py      :     0.892070
      dz2     :     0.060995  d :     0.539124
      dxz     :     0.137551
      dyz     :     0.123192
      dx2y2   :     0.093024
      dxy     :     0.124362
      f0      :     0.010185  f :     0.113979
      f+1     :     0.013794
      f-1     :     0.018780
      f+2     :     0.014057
      f-2     :     0.020905
      f+3     :     0.019005
      f-3     :     0.017253
      g0      :     0.000712  g :     0.006551
      g+1     :     0.000249
      g-1     :     0.000629
      g+2     :     0.000707
      g-2     :     0.000783
      g+3     :     0.000929
      g-3     :     0.000992
      g+4     :     0.000844
      g-4     :     0.000708

  4 C s       :     2.547559  s :     2.547559
      pz      :     0.909595  p :     2.700772
      px      :     0.891423
      py      :     0.899755
      dz2     :     0.075655  d :     0.556785
      dxz     :     0.145182
      dyz     :     0.114887
      dx2y2   :     0.097757
      dxy     :     0.123305
      f0      :     0.011399  f :     0.113183
      f+1     :     0.019153
      f-1     :     0.013338
      f+2     :     0.020329
      f-2     :     0.014657
      f+3     :     0.020958
      f-3     :     0.013350
      g0      :     0.000582  g :     0.006609
      g+1     :     0.000609
      g-1     :     0.000585
      g+2     :     0.000488
      g-2     :     0.000981
      g+3     :     0.001112
      g-3     :     0.000822
      g+4     :     0.000668
      g-4     :     0.000762

  5 C s       :     2.551711  s :     2.551711
      pz      :     0.913335  p :     2.755271
      px      :     0.918467
      py      :     0.923469
      dz2     :     0.057617  d :     0.393911
      dxz     :     0.098684
      dyz     :     0.091485
      dx2y2   :     0.035706
      dxy     :     0.110419
      f0      :     0.010528  f :     0.074063
      f+1     :     0.011086
      f-1     :     0.010652
      f+2     :     0.011687
      f-2     :     0.010921
      f+3     :     0.011285
      f-3     :     0.007903
      g0      :     0.000207  g :     0.003920
      g+1     :     0.000533
      g-1     :     0.000562
      g+2     :     0.000354
      g-2     :     0.000517
      g+3     :     0.000692
      g-3     :     0.000445
      g+4     :     0.000361
      g-4     :     0.000249

  6 H s       :     0.689395  s :     0.689395
      pz      :     0.151133  p :     0.434799
      px      :     0.127736
      py      :     0.155931
      dz2     :     0.034385  d :     0.191819
      dxz     :     0.021522
      dyz     :     0.053541
      dx2y2   :     0.032267
      dxy     :     0.050104
      f0      :     0.001975  f :     0.039006
      f+1     :     0.000184
      f-1     :     0.011151
      f+2     :     0.005120
      f-2     :     0.008646
      f+3     :     0.007999
      f-3     :     0.003929

  7 H s       :     0.807165  s :     0.807165
      pz      :     0.057716  p :     0.190550
      px      :     0.089012
      py      :     0.043822
      dz2     :     0.009064  d :     0.065846
      dxz     :     0.019445
      dyz     :     0.007076
      dx2y2   :     0.015263
      dxy     :     0.014998
      f0      :     0.000684  f :     0.009224
      f+1     :     0.002128
      f-1     :     0.000108
      f+2     :     0.001687
      f-2     :     0.001508
      f+3     :     0.001726
      f-3     :     0.001385

  8 H s       :     0.805044  s :     0.805044
      pz      :     0.074694  p :     0.195770
      px      :     0.074272
      py      :     0.046804
      dz2     :     0.017986  d :     0.066427
      dxz     :     0.014391
      dyz     :     0.014122
      dx2y2   :     0.010867
      dxy     :     0.009060
      f0      :     0.001170  f :     0.009305
      f+1     :     0.002667
      f-1     :     0.000810
      f+2     :     0.001585
      f-2     :     0.001879
      f+3     :     0.000677
      f-3     :     0.000518

  9 H s       :     0.773120  s :     0.773120
      pz      :     0.062170  p :     0.194170
      px      :     0.083677
      py      :     0.048323
      dz2     :     0.011373  d :     0.068486
      dxz     :     0.018549
      dyz     :     0.008296
      dx2y2   :     0.013975
      dxy     :     0.016293
      f0      :     0.000524  f :     0.009397
      f+1     :     0.002509
      f-1     :     0.000138
      f+2     :     0.001683
      f-2     :     0.001743
      f+3     :     0.001394
      f-3     :     0.001405

 10 H s       :     0.772960  s :     0.772960
      pz      :     0.073503  p :     0.195281
      px      :     0.071577
      py      :     0.050202
      dz2     :     0.018501  d :     0.068611
      dxz     :     0.013638
      dyz     :     0.015277
      dx2y2   :     0.011223
      dxy     :     0.009972
      f0      :     0.001124  f :     0.009364
      f+1     :     0.002561
      f-1     :     0.000862
      f+2     :     0.001587
      f-2     :     0.001962
      f+3     :     0.000701
      f-3     :     0.000567

 11 H s       :     0.775386  s :     0.775386
      pz      :     0.075375  p :     0.195349
      px      :     0.065969
      py      :     0.054005
      dz2     :     0.018703  d :     0.068154
      dxz     :     0.014947
      dyz     :     0.015901
      dx2y2   :     0.008969
      dxy     :     0.009633
      f0      :     0.001512  f :     0.009391
      f+1     :     0.002048
      f-1     :     0.001301
      f+2     :     0.001840
      f-2     :     0.001692
      f+3     :     0.000372
      f-3     :     0.000625

 12 H s       :     0.773575  s :     0.773575
      pz      :     0.064251  p :     0.196123
      px      :     0.065640
      py      :     0.066233
      dz2     :     0.014775  d :     0.068299
      dxz     :     0.012100
      dyz     :     0.012888
      dx2y2   :     0.015869
      dxy     :     0.012667
      f0      :     0.000674  f :     0.009362
      f+1     :     0.001000
      f-1     :     0.001812
      f+2     :     0.001884
      f-2     :     0.001546
      f+3     :     0.001397
      f-3     :     0.001049

 13 H s       :     0.778583  s :     0.778583
      pz      :     0.075325  p :     0.194605
      px      :     0.062799
      py      :     0.056480
      dz2     :     0.018448  d :     0.067888
      dxz     :     0.014641
      dyz     :     0.016707
      dx2y2   :     0.007527
      dxy     :     0.010566
      f0      :     0.001565  f :     0.009370
      f+1     :     0.001883
      f-1     :     0.001487
      f+2     :     0.001711
      f-2     :     0.001793
      f+3     :     0.000351
      f-3     :     0.000580

 14 H s       :     0.778776  s :     0.778776
      pz      :     0.061139  p :     0.195899
      px      :     0.056424
      py      :     0.078336
      dz2     :     0.012364  d :     0.067891
      dxz     :     0.009333
      dyz     :     0.015027
      dx2y2   :     0.014489
      dxy     :     0.016679
      f0      :     0.000570  f :     0.009360
      f+1     :     0.000610
      f-1     :     0.001992
      f+2     :     0.001585
      f-2     :     0.001569
      f+3     :     0.001542
      f-3     :     0.001492

 15 H s       :     0.790309  s :     0.790309
      pz      :     0.060031  p :     0.197448
      px      :     0.070374
      py      :     0.067043
      dz2     :     0.008670  d :     0.066516
      dxz     :     0.013614
      dyz     :     0.012015
      dx2y2   :     0.019158
      dxy     :     0.013059
      f0      :     0.000642  f :     0.009129
      f+1     :     0.001188
      f-1     :     0.000913
      f+2     :     0.001399
      f-2     :     0.001653
      f+3     :     0.001604
      f-3     :     0.001731

 16 H s       :     0.789648  s :     0.789648
      pz      :     0.072966  p :     0.197016
      px      :     0.062736
      py      :     0.061314
      dz2     :     0.019034  d :     0.066997
      dxz     :     0.013692
      dyz     :     0.014716
      dx2y2   :     0.008631
      dxy     :     0.010924
      f0      :     0.001388  f :     0.009169
      f+1     :     0.001778
      f-1     :     0.001523
      f+2     :     0.001840
      f-2     :     0.001614
      f+3     :     0.000487
      f-3     :     0.000541

 17 H s       :     0.787201  s :     0.787201
      pz      :     0.061951  p :     0.200431
      px      :     0.063645
      py      :     0.074835
      dz2     :     0.011941  d :     0.067272
      dxz     :     0.010931
      dyz     :     0.013078
      dx2y2   :     0.016366
      dxy     :     0.014957
      f0      :     0.000546  f :     0.009175
      f+1     :     0.000967
      f-1     :     0.001543
      f+2     :     0.001601
      f-2     :     0.001559
      f+3     :     0.001301
      f-3     :     0.001659



                      *****************************
                      * MAYER POPULATION ANALYSIS *
                      *****************************

  NA   - Mulliken gross atomic population
  ZA   - Total nuclear charge
  QA   - Mulliken gross atomic charge
  VA   - Mayer's total valence
  BVA  - Mayer's bonded valence
  FA   - Mayer's free valence

  ATOM       NA         ZA         QA         VA         BVA        FA
  0 O      8.4402     8.0000    -0.4402     1.9655     1.9655     0.0000
  1 C      5.8788     6.0000     0.1212     3.8480     3.8480     0.0000
  2 C      5.9922     6.0000     0.0078     3.7755     3.7755    -0.0000
  3 C      6.0215     6.0000    -0.0215     3.8447     3.8447     0.0000
  4 C      6.0311     6.0000    -0.0311     3.8444     3.8444    -0.0000
  5 C      6.0071     6.0000    -0.0071     3.8497     3.8497    -0.0000
  6 H      0.7741     1.0000     0.2259     1.0182     1.0182     0.0000
  7 H      0.9783     1.0000     0.0217     0.9473     0.9473     0.0000
  8 H      0.9643     1.0000     0.0357     0.9534     0.9534     0.0000
  9 H      0.9857     1.0000     0.0143     0.9929     0.9929    -0.0000
 10 H      0.9827     1.0000     0.0173     0.9963     0.9963     0.0000
 11 H      1.0027     1.0000    -0.0027     0.9965     0.9965     0.0000
 12 H      0.9819     1.0000     0.0181     0.9893     0.9893    -0.0000
 13 H      0.9902     1.0000     0.0098     0.9857     0.9857     0.0000
 14 H      0.9849     1.0000     0.0151     0.9889     0.9889    -0.0000
 15 H      0.9953     1.0000     0.0047     1.0115     1.0115    -0.0000
 16 H      0.9978     1.0000     0.0022     1.0034     1.0034    -0.0000
 17 H      0.9911     1.0000     0.0089     0.9905     0.9905    -0.0000

  Mayer bond orders larger than 0.100000
B(  0-O ,  1-C ) :   0.9767 B(  0-O ,  6-H ) :   0.9856 B(  1-C ,  2-C ) :   0.9584 
B(  1-C ,  7-H ) :   0.9308 B(  1-C ,  8-H ) :   0.9269 B(  2-C ,  3-C ) :   0.9420 
B(  2-C ,  9-H ) :   0.9356 B(  2-C , 10-H ) :   0.9433 B(  3-C ,  4-C ) :   0.9599 
B(  3-C , 11-H ) :   0.9453 B(  3-C , 12-H ) :   0.9551 B(  4-C ,  5-C ) :   0.9631 
B(  4-C , 13-H ) :   0.9482 B(  4-C , 14-H ) :   0.9529 B(  5-C , 15-H ) :   0.9679 
B(  5-C , 16-H ) :   0.9546 B(  5-C , 17-H ) :   0.9506 

-------
TIMINGS
-------

Total SCF time: 0 days 0 hours 0 min -8 sec 

Total time                  ....      -8.089 sec
Sum of individual times     ....      -8.583 sec  (106.1%)

SCF preparation             ....       0.359 sec  ( -4.4%)
Fock matrix formation       ....     -10.907 sec  (134.8%)
  Startup                   ....       0.023 sec  ( -0.2% of F)
  Split-RI-J                ....       1.126 sec  (-10.3% of F)
Diagonalization             ....       0.000 sec  ( -0.0%)
Density matrix formation    ....       0.108 sec  ( -1.3%)
Total Energy calculation    ....       0.043 sec  ( -0.5%)
Population analysis         ....       0.106 sec  ( -1.3%)
Orbital Transformation      ....       0.309 sec  ( -3.8%)
Orbital Orthonormalization  ....       0.000 sec  ( -0.0%)
DIIS solution               ....       0.968 sec  (-12.0%)
SOSCF solution              ....       0.431 sec  ( -5.3%)
Finished LeanSCF after  -8.1 sec

Maximum memory used throughout the entire LEANSCF-calculation: 55.8 MB


           ************************************************************
           *        Program running with 10 parallel MPI-processes    *
           *              working on a common directory               *
           ************************************************************

------------------------------------------------------------------------------
                         ORCA PROPERTY INTEGRAL CALCULATIONS
------------------------------------------------------------------------------

GBWName                                   ... orca.gbw
Number of atoms                           ...     18
Number of basis functions                 ...    702
Max core memory                           ...   4096 MB

Dipole integrals                          ... YES
Quadrupole integrals                      ...  NO
Linear momentum integrals                 ...  NO
Angular momentum integrals                ...  NO
Higher moments length integrals           ...  NO
Higher moments velocity integrals         ...  NO
Kinetic energy integrals                  ...  NO
GIAO right hand sides                     ...  NO
GIAO dipole derivative integrals          ...  NO
SOC integrals                             ...  NO
EPR diamagnetic integrals (GIAO)          ...  NO
EPR gauge integrals                       ...  NO
Field gradient integrals                  ...  NO (   0 nuclei)
Spin-dipole/Fermi contact integrals       ...  NO (   0 nuclei)
Contact density integrals                 ...  NO (   0 nuclei)
Nucleus-orbit integrals                   ...  NO (   0 nuclei)
Geometric perturbations                   ...  NO (  18 nuclei)

Choice of electric origin   ... Center of mass
Position of electric origin ... (  1.8186, -0.3318,  1.4023) 
Choice of magnetic origin   ... GIAO
Position of magnetic origin ... (  0.0000,  0.0000,  0.0000) 

Calculating integrals                     ... Electric Dipole (Length)     done (  0.0 sec)

Property integrals calculated in   0.0 sec

Maximum memory used throughout the entire PROPINT-calculation: 53.5 MB


-------------------------------------------------------------------------------
                          DFT DISPERSION CORRECTION                            
                                                                               
                                DFTD4 V3.4.0                                   
-------------------------------------------------------------------------------
The R2SCAN3C composite method is recognized
Using three-body term ABC
Active option DFTDOPT                   ...         5   

-------------------------   ----------------
Dispersion correction           -0.004239710
-------------------------   ----------------

------------------   -----------------
gCP correction             0.009720826
------------------   -----------------

-------------------------   --------------------
FINAL SINGLE POINT ENERGY      -272.932514522806
-------------------------   --------------------



           ************************************************************
           *        Program running with 10 parallel MPI-processes    *
           *              working on a common directory               *
           ************************************************************
------------------------------------------------------------------------------
                         ORCA SCF GRADIENT CALCULATION
------------------------------------------------------------------------------

Nuc. rep. gradient        (SHARK) ... done (  0.0 sec)
HCore & Overlap gradient  (SHARK) ... done (  0.2 sec)
Split-RIJ-J gradient      (SHARK) ... done (  0.6 sec)
[...]
freq.    1010.31  E(vib)   ...       0.08 
freq.    1027.06  E(vib)   ...       0.07 
freq.    1047.00  E(vib)   ...       0.07 
freq.    1095.55  E(vib)   ...       0.06 
freq.    1112.78  E(vib)   ...       0.06 
freq.    1154.77  E(vib)   ...       0.05 
freq.    1229.95  E(vib)   ...       0.04 
freq.    1232.98  E(vib)   ...       0.04 
freq.    1281.73  E(vib)   ...       0.04 
freq.    1308.38  E(vib)   ...       0.03 
freq.    1320.09  E(vib)   ...       0.03 
freq.    1345.02  E(vib)   ...       0.03 
freq.    1368.93  E(vib)   ...       0.03 
freq.    1373.00  E(vib)   ...       0.03 
freq.    1403.90  E(vib)   ...       0.03 
freq.    1439.73  E(vib)   ...       0.02 
freq.    1479.94  E(vib)   ...       0.02 
freq.    1482.23  E(vib)   ...       0.02 
freq.    1487.33  E(vib)   ...       0.02 
freq.    1498.12  E(vib)   ...       0.02 
freq.    1501.69  E(vib)   ...       0.02 
freq.    1519.67  E(vib)   ...       0.02 
freq.    2938.27  E(vib)   ...       0.00 
freq.    2975.82  E(vib)   ...       0.00 
freq.    2980.38  E(vib)   ...       0.00 
freq.    2986.55  E(vib)   ...       0.00 
freq.    2998.20  E(vib)   ...       0.00 
freq.    3001.48  E(vib)   ...       0.00 
freq.    3025.71  E(vib)   ...       0.00 
freq.    3037.27  E(vib)   ...       0.00 
freq.    3053.08  E(vib)   ...       0.00 
freq.    3071.61  E(vib)   ...       0.00 
freq.    3078.50  E(vib)   ...       0.00 
freq.    3841.33  E(vib)   ...       0.00 

------------
INNER ENERGY
------------

The inner energy is: U= E(el) + E(ZPE) + E(vib) + E(rot) + E(trans)
    E(el)   - is the total energy from the electronic structure calculation
              = E(kin-el) + E(nuc-el) + E(el-el) + E(nuc-nuc)
    E(ZPE)  - the the zero temperature vibrational energy from the frequency calculation
    E(vib)  - the the finite temperature correction to E(ZPE) due to population
              of excited vibrational states
    E(rot)  - is the rotational thermal energy
    E(trans)- is the translational thermal energy

Summary of contributions to the inner energy U:
Electronic energy                ...   -272.93412834 Eh
Zero point energy                ...      0.16469888 Eh     103.35 kcal/mol
Thermal vibrational correction   ...      0.00936786 Eh       5.88 kcal/mol
Thermal rotational correction    ...      0.00190008 Eh       1.19 kcal/mol
Thermal translational correction ...      0.00190008 Eh       1.19 kcal/mol
-----------------------------------------------------------------------
Total thermal energy                   -272.75626143 Eh


Summary of corrections to the electronic energy:
(perhaps to be used in another calculation)
Total thermal correction                  0.01316802 Eh       8.26 kcal/mol
Non-thermal (ZPE) correction              0.16469888 Eh     103.35 kcal/mol
-----------------------------------------------------------------------
Total correction                          0.17786691 Eh     111.61 kcal/mol


--------
ENTHALPY
--------

The enthalpy is H = U + kB*T
                kB is Boltzmann's constant
Total thermal energy              ...   -272.75626143 Eh 
Thermal Enthalpy correction       ...      0.00126676 Eh       0.79 kcal/mol
-----------------------------------------------------------------------
Total Enthalpy                    ...   -272.75499467 Eh


Note: Only C1 symmetry has been detected, increase convergence thresholds 
      if your molecule has a higher symmetry. Symmetry factor of 1.0 is   
      used for the rotational entropy correction. 
 

Note: Rotational entropy computed according to Herzberg 
Infrared and Raman Spectra, Chapter V,1, Van Nostrand Reinhold, 1945 
Point Group:  C1, Symmetry Number:   1  
Rotational constants in cm-1:     0.209496     0.058143     0.050122 

Vibrational entropy computed according to the QRRHO of S. Grimme
Chem.Eur.J. 2012 18 9955 using a reference frequency of 100.0 cm-1


-------
ENTROPY
-------

The entropy contributions are T*S = T*(S(el)+S(vib)+S(rot)+S(trans))
     S(el)   - electronic entropy
     S(vib)  - vibrational entropy
     S(rot)  - rotational entropy
     S(trans)- translational entropy
The entropies will be listed as multiplied by the temperature to get
units of energy

Electronic entropy                ...      0.00000000 Eh      0.00 kcal/mol
Vibrational entropy               ...      0.01643427 Eh     10.31 kcal/mol
Rotational entropy                ...      0.01800576 Eh     11.30 kcal/mol
Translational entropy             ...      0.02600875 Eh     16.32 kcal/mol
-----------------------------------------------------------------------
Final entropy term                ...      0.06044877 Eh     37.93 kcal/mol

In case the symmetry of your molecule has not been determined correctly
or in case you have a reason to use a different symmetry number we print 
out the resulting rotational entropy values for sn=1,12:

 non-linear molecules -----------------------------------
|  sn= 1 | S(rot)=       0.01800576 Eh     11.30 kcal/mol|
|  sn= 2 | S(rot)=       0.01712774 Eh     10.75 kcal/mol|
|  sn= 3 | S(rot)=       0.01661413 Eh     10.43 kcal/mol|
|  sn= 4 | S(rot)=       0.01624972 Eh     10.20 kcal/mol|
|  sn= 5 | S(rot)=       0.01596706 Eh     10.02 kcal/mol|
|  sn= 6 | S(rot)=       0.01573610 Eh      9.87 kcal/mol|
|  sn= 7 | S(rot)=       0.01554084 Eh      9.75 kcal/mol|
|  sn= 8 | S(rot)=       0.01537169 Eh      9.65 kcal/mol|
|  sn= 9 | S(rot)=       0.01522249 Eh      9.55 kcal/mol|
|  sn=10 | S(rot)=       0.01508903 Eh      9.47 kcal/mol|
|  sn=11 | S(rot)=       0.01496830 Eh      9.39 kcal/mol|
|  sn=12 | S(rot)=       0.01485808 Eh      9.32 kcal/mol|
 linear molecules ---------------------------------------
|  Dinfh | S(rot)=       0.01130905 Eh      7.10 kcal/mol|
|  Cinfv | S(rot)=       0.01218708 Eh      7.65 kcal/mol|
 --------------------------------------------------------


-------------------
GIBBS FREE ENERGY
-------------------

The Gibbs free energy is G = H - T*S

Total enthalpy                    ...   -272.75499467 Eh 
Total entropy correction          ...     -0.06044877 Eh    -37.93 kcal/mol
-----------------------------------------------------------------------
Final Gibbs free energy         ...   -272.81544345 Eh

For completeness - the Gibbs free energy minus the electronic energy
G-E(el)                           ...      0.11868489 Eh     74.48 kcal/mol


The first frequency considered to be a vibration is 6
The total number of vibrations considered is 48


--------------------------
THERMOCHEMISTRY AT 400.00K
--------------------------

Temperature         ...   400.00 K
Pressure            ...     2.00 atm
Total Mass          ...    88.15 AMU
Quasi RRHO          ...     True
Cut-Off Frequency   ...     1.00 cm^-1

Throughout the following assumptions are being made:
  (1) The electronic state is orbitally nondegenerate
  (2) There are no thermally accessible electronically excited states
  (3) Hindered rotations indicated by low frequency modes are not
      treated as such but are treated as vibrations and this may
      cause some error
  (4) All equations used are the standard statistical mechanics
      equations for an ideal gas
  (5) All vibrations are strictly harmonic

freq.      85.71  E(vib)   ...       0.68 
freq.     105.18  E(vib)   ...       0.65 
freq.     144.46  E(vib)   ...       0.61 
freq.     254.78  E(vib)   ...       0.49 
freq.     267.52  E(vib)   ...       0.47 
freq.     286.93  E(vib)   ...       0.45 
freq.     318.45  E(vib)   ...       0.42 
freq.     399.01  E(vib)   ...       0.36 
freq.     499.00  E(vib)   ...       0.28 
freq.     758.18  E(vib)   ...       0.15 
freq.     790.32  E(vib)   ...       0.14 
freq.     834.63  E(vib)   ...       0.12 
freq.     878.55  E(vib)   ...       0.11 
freq.     963.39  E(vib)   ...       0.09 
freq.    1010.31  E(vib)   ...       0.08 
freq.    1027.06  E(vib)   ...       0.07 
freq.    1047.00  E(vib)   ...       0.07 
freq.    1095.55  E(vib)   ...       0.06 
freq.    1112.78  E(vib)   ...       0.06 
freq.    1154.77  E(vib)   ...       0.05 
freq.    1229.95  E(vib)   ...       0.04 
freq.    1232.98  E(vib)   ...       0.04 
freq.    1281.73  E(vib)   ...       0.04 
freq.    1308.38  E(vib)   ...       0.03 
freq.    1320.09  E(vib)   ...       0.03 
freq.    1345.02  E(vib)   ...       0.03 
freq.    1368.93  E(vib)   ...       0.03 
freq.    1373.00  E(vib)   ...       0.03 
freq.    1403.90  E(vib)   ...       0.03 
freq.    1439.73  E(vib)   ...       0.02 
freq.    1479.94  E(vib)   ...       0.02 
freq.    1482.23  E(vib)   ...       0.02 
freq.    1487.33  E(vib)   ...       0.02 
freq.    1498.12  E(vib)   ...       0.02 
freq.    1501.69  E(vib)   ...       0.02 
freq.    1519.67  E(vib)   ...       0.02 
freq.    2938.27  E(vib)   ...       0.00 
freq.    2975.82  E(vib)   ...       0.00 
freq.    2980.38  E(vib)   ...       0.00 
freq.    2986.55  E(vib)   ...       0.00 
freq.    2998.20  E(vib)   ...       0.00 
freq.    3001.48  E(vib)   ...       0.00 
freq.    3025.71  E(vib)   ...       0.00 
freq.    3037.27  E(vib)   ...       0.00 
freq.    3053.08  E(vib)   ...       0.00 
freq.    3071.61  E(vib)   ...       0.00 
freq.    3078.50  E(vib)   ...       0.00 
freq.    3841.33  E(vib)   ...       0.00 

------------
INNER ENERGY
------------

The inner energy is: U= E(el) + E(ZPE) + E(vib) + E(rot) + E(trans)
    E(el)   - is the total energy from the electronic structure calculation
              = E(kin-el) + E(nuc-el) + E(el-el) + E(nuc-nuc)
    E(ZPE)  - the the zero temperature vibrational energy from the frequency calculation
    E(vib)  - the the finite temperature correction to E(ZPE) due to population
              of excited vibrational states
    E(rot)  - is the rotational thermal energy
    E(trans)- is the translational thermal energy

Summary of contributions to the inner energy U:
Electronic energy                ...   -272.93412834 Eh
Zero point energy                ...      0.16469888 Eh     103.35 kcal/mol
Thermal vibrational correction   ...      0.00936786 Eh       5.88 kcal/mol
Thermal rotational correction    ...      0.00190008 Eh       1.19 kcal/mol
Thermal translational correction ...      0.00190008 Eh       1.19 kcal/mol
-----------------------------------------------------------------------
Total thermal energy                   -272.75626143 Eh


Summary of corrections to the electronic energy:
(perhaps to be used in another calculation)
Total thermal correction                  0.01316802 Eh       8.26 kcal/mol
Non-thermal (ZPE) correction              0.16469888 Eh     103.35 kcal/mol
-----------------------------------------------------------------------
Total correction                          0.17786691 Eh     111.61 kcal/mol


--------
ENTHALPY
--------

The enthalpy is H = U + kB*T
                kB is Boltzmann's constant
Total thermal energy              ...   -272.75626143 Eh 
Thermal Enthalpy correction       ...      0.00126676 Eh       0.79 kcal/mol
-----------------------------------------------------------------------
Total Enthalpy                    ...   -272.75499467 Eh


Note: Only C1 symmetry has been detected, increase convergence thresholds 
      if your molecule has a higher symmetry. Symmetry factor of 1.0 is   
      used for the rotational entropy correction. 
 

Note: Rotational entropy computed according to Herzberg 
Infrared and Raman Spectra, Chapter V,1, Van Nostrand Reinhold, 1945 
Point Group:  C1, Symmetry Number:   1  
Rotational constants in cm-1:     0.209496     0.058143     0.050122 

Vibrational entropy computed according to the QRRHO of S. Grimme
Chem.Eur.J. 2012 18 9955 using a reference frequency of 100.0 cm-1


-------
ENTROPY
-------

The entropy contributions are T*S = T*(S(el)+S(vib)+S(rot)+S(trans))
     S(el)   - electronic entropy
     S(vib)  - vibrational entropy
     S(rot)  - rotational entropy
     S(trans)- translational entropy
The entropies will be listed as multiplied by the temperature to get
units of energy

Electronic entropy                ...      0.00000000 Eh      0.00 kcal/mol
Vibrational entropy               ...      0.01643427 Eh     10.31 kcal/mol
Rotational entropy                ...      0.01800576 Eh     11.30 kcal/mol
Translational entropy             ...      0.02513072 Eh     15.77 kcal/mol
-----------------------------------------------------------------------
Final entropy term                ...      0.05957075 Eh     37.38 kcal/mol

In case the symmetry of your molecule has not been determined correctly
or in case you have a reason to use a different symmetry number we print 
out the resulting rotational entropy values for sn=1,12:

 non-linear molecules -----------------------------------
|  sn= 1 | S(rot)=       0.01800576 Eh     11.30 kcal/mol|
|  sn= 2 | S(rot)=       0.01712774 Eh     10.75 kcal/mol|
|  sn= 3 | S(rot)=       0.01661413 Eh     10.43 kcal/mol|
|  sn= 4 | S(rot)=       0.01624972 Eh     10.20 kcal/mol|
|  sn= 5 | S(rot)=       0.01596706 Eh     10.02 kcal/mol|
|  sn= 6 | S(rot)=       0.01573610 Eh      9.87 kcal/mol|
|  sn= 7 | S(rot)=       0.01554084 Eh      9.75 kcal/mol|
|  sn= 8 | S(rot)=       0.01537169 Eh      9.65 kcal/mol|
|  sn= 9 | S(rot)=       0.01522249 Eh      9.55 kcal/mol|
|  sn=10 | S(rot)=       0.01508903 Eh      9.47 kcal/mol|
|  sn=11 | S(rot)=       0.01496830 Eh      9.39 kcal/mol|
|  sn=12 | S(rot)=       0.01485808 Eh      9.32 kcal/mol|
 linear molecules ---------------------------------------
|  Dinfh | S(rot)=       0.01130905 Eh      7.10 kcal/mol|
|  Cinfv | S(rot)=       0.01218708 Eh      7.65 kcal/mol|
 --------------------------------------------------------


-------------------
GIBBS FREE ENERGY
-------------------

The Gibbs free energy is G = H - T*S

Total enthalpy                    ...   -272.75499467 Eh 
Total entropy correction          ...     -0.05957075 Eh    -37.38 kcal/mol
-----------------------------------------------------------------------
Final Gibbs free energy         ...   -272.81456542 Eh

For completeness - the Gibbs free energy minus the electronic energy
G-E(el)                           ...      0.11956291 Eh     75.03 kcal/mol


Maximum memory used throughout the entire PROP-calculation: 112.2 MB

--------------------------------
SUGGESTED CITATIONS FOR THIS RUN
--------------------------------

Below you find a list of papers that are relevant to this ORCA run
We neither can nor want to force you to cite these papers, but we appreciate if you do
You receive ORCA, which is the product of decades of hard work by many enthusiastic individuals, for free
The only thing we kindly ask in return is that you cite our papers,
We deeply appreciate it, if you show your appreciation for ORCA by not just citing the generic ORCA reference.

Please note that relegating all ORCA citations to the supporting information does *not* help us.
SI sections are not indexed - citations you put there will not count into any citation statistics
But we need these citations in order to attract the funding resources that allow us to do what we are doing

Therefore, if you are a happy ORCA user, please consider citing a few of the papers listed below in the main body of your paper

In addition to the list printed below, the program has created the file orca.bibtex that contains the list in bibtex format
You can import this file easily into all common literature databanks and citation aid programs


List of essential papers. We consider these as the minimum necessary citations

  1. Grimme, S.; Hansen, A.; Ehlert, S.; Mewes, J.
     r2SCAN-3c: A 'Swiss army knife' composite electronic-structure method
     J. Chem. Phys. 2021 154 , 064103
     doi.org/10.1063/5.0040021
  2. Neese, F.
     Software update: the ORCA program system, version 6.0
     WIRES Comput. Molec. Sci. 2025 15(1), e70019
     doi.org/10.1002/wcms.7019

List of papers to cite with high priority. The work reported in these papers was absolutely
necessary for this run to complete.
Our perspective: the developers of density functionals and basis sets usually get cited in chemistry papers
Good! But without the algorithms to do something with them, the functionals or basis sets would not do anything.
Hence, in our opinion, the algorithm design and method developments papers are equally worthy of getting cited

  1. Neese, F.
     An improvement of the resolution of the identity approximation for the formation of the Coulomb matrix
     J. Comp. Chem. 2003 24(14), 1740-1747
     doi.org/10.1002/jcc.10318
  2. Bykov, D.; Petrenko, T.; Izsak, R.; Kossmann, S.; Becker, U.; Valeev, E.; Neese, F.
     Efficient implementation of the analytic second derivatives of Hartree-Fock and hybrid DFT energies: a detailed analysis of different approximations
     Molec. Phys. 2015 113 , 1961-1977
     doi.org/10.1080/00268976.2015.1025114
  3. Caldeweyher, E.; Bannwarth, C.; Grimme, S.
     Extension of the D3 dispersion coefficient model
     J. Chem. Phys. 2017 147 , 034112
     doi.org/10.1063/1.4993215
  4. Lehtola, S.; Steigemann, C.; Oliveira, M.; Marques, M.
     Recent developments in Libxc - A comprehensive library of functionals for density functional theory
     Software X 2018 7 , 
     doi.org/10.1016/j.softx.2017.11.002
  5. Caldeweyher, E.; Ehlert, S.; Hansen, A.; Neugebauer, H.; Spicher, S.; Bannwarth, C.; Grimme, S.
     A generally applicable atomic-charge dependent London dispersion correction
     J. Chem. Phys. 2019 150 , 154122
     doi.org/10.1063/1.5090222
  6. Caldeweyher, E.; Mewes, J.; Ehlert, S.; Grimme, S.
     Extension and evaluation of the D4 London-dispersion model for periodic systems
     Phys. Chem. Chem. Phys. 2020 22(16), 8499-8512
     doi.org/10.1039/D0CP00502A
  7. Neese, F.
     The SHARK Integral Generation and Digestion System
     J. Comp. Chem. 2022 44(3), 381
     doi.org/10.1002/jcc.26942
  8. Wittmann, L.; Gordiy, I.; Friede, M.; Helmich-Paris, B.; Grimme, S.; Hansen, A.; Bursch, M.
     Extension of the D3 and D4 London Dispersion Corrections to the full Actinides Series
     Phys. Chem. Chem. Phys. 2024 26(32), 21379-21394
     doi.org/10.1039/D4CP01514B

List of suggested additional citations. These are papers that are important in the 'surrounding' of 
of this run, or papers that preceded the highly important papers. If you like your results we are grateful for a citation.

  1. Neese, F.
     The ORCA program system
     WIRES Comput. Molec. Sci. 2012 2(1), 73-78
     doi.org/10.1002/wcms.81
  2. Neese, F.
     Software update: the ORCA program system, version 4.0
     WIRES Comput. Molec. Sci. 2018 8(1), 1-6
     doi.org/10.1002/wcms.1327
  3. Neese, F.; Wennmohs, F.; Becker, U.; Riplinger, C.
     The ORCA quantum chemistry program package
     J. Chem. Phys. 2020 152(22), 224108
     doi.org/10.1063/5.0004608
  4. Neese, F.
     Software update: The ORCA program system—Version 5.0
     WIRES Comput. Molec. Sci. 2022 12(1), e1606
     doi.org/10.1002/wcms.1606

List of optional additional citations

  1. Neese, F.
     Approximate second-order SCF convergence for spin unrestricted wavefunctions
     Chem. Phys. Lett. 2000 325(1-3), 93-98
     doi.org/10.1016/s0009-2614(00)00662-x

Timings for individual modules:

Sum of individual times          ...      335.002 sec (=   5.583 min)
Startup calculation              ...       10.785 sec (=   0.180 min)   3.2 %
SCF iterations                   ...       59.734 sec (=   0.996 min)  17.8 %
Property integrals               ...      171.379 sec (=   2.856 min)  51.2 %
SCF Response                     ...       46.296 sec (=   0.772 min)  13.8 %
Property calculations            ...       21.268 sec (=   0.354 min)   6.3 %
SCF Gradient evaluation          ...       25.519 sec (=   0.425 min)   7.6 %
Geometry relaxation              ...        0.021 sec (=   0.000 min)   0.0 %
                             ****ORCA TERMINATED NORMALLY****
TOTAL RUN TIME: 0 days 0 hours 5 minutes 38 seconds 524 msec
